
  ___ ___ ___ _ _ _  
 |   |   |_  | | | | 
 | | | | | . | | | | 
 |__ |  _|___|_____|  22.8.0
 |___|_|             

User:   gotols@vera1
Date:   Thu Feb 16 10:01:39 2023
Arch:   x86_64
Pid:    386260
CWD:    /cephyr/users/gotols/Vera/TIF320-Computational-materials-and-molecular-physics-Assignments
Python: 3.10.4
gpaw:   /apps/Arch/software/GPAW/22.8.0-foss-2022a/lib/python3.10/site-packages/gpaw
_gpaw:  /apps/Arch/software/GPAW/22.8.0-foss-2022a/lib/python3.10/site-packages/
        _gpaw.cpython-310-x86_64-linux-gnu.so
ase:    /apps/Arch/software/ASE/3.22.1-foss-2022a/lib/python3.10/site-packages/ase (version 3.22.1)
numpy:  /apps/Arch/software/SciPy-bundle/2022.05-foss-2022a/lib/python3.10/site-packages/numpy (version 1.22.3)
scipy:  /apps/Arch/software/SciPy-bundle/2022.05-foss-2022a/lib/python3.10/site-packages/scipy (version 1.8.1)
libxc:  5.2.3
units:  Angstrom and eV
cores: 1
OpenMP: False
OMP_NUM_THREADS: 1

Input parameters:
  kpts: [4 4 1]
  mode: {ecut: 200.0,
         name: pw}

System changes: positions, numbers, cell, pbc, initial_charges, initial_magmoms 

Initialize ...

species:
  Au:
    name: Gold
    id: a44207148b704df7bec07bf25e8feca8
    Z: 79.0
    valence: 11
    core: 68
    charge: 0.0
    file: /apps/Common/software/GPAW-setups/0.9.20000/Au.LDA.gz
    compensation charges: {type: gauss,
                           rc: 0.42,
                           lmax: 2}
    cutoffs: {filter: 2.33,
              core: 2.81}
    valence states:
      #              energy  rcut
      - 6s(1.00)    -6.048   1.323
      - 6p(0.00)    -0.888   1.323
      - 5d(10.00)    -7.129   1.323
      -  s          21.163   1.323
      -  p          26.323   1.323
      -  d          20.082   1.323
  
    # Using partial waves for Au as LCAO basis

Reference energy: -13940466.469256  # eV

Spin-paired calculation

Convergence criteria:
 Maximum [total energy] change in last 3 cyles: 0.0005 eV / electron
 Maximum integral of absolute [dens]ity change: 0.0001 electrons / valence electron
 Maximum integral of absolute [eigenst]ate change: 4e-08 eV^2 / valence electron
 Maximum number of scf [iter]ations: 333
 (Square brackets indicate name in SCF output, whereas a 'c' in
 the SCF output indicates the quantity has converged.)

Symmetries present (total): 6

  ( 1  0  0)  ( 1 -1  0)  ( 0  1  0)  ( 0 -1  0)  (-1  1  0)  (-1  0  0)
  ( 0  1  0)  ( 0 -1  0)  ( 1  0  0)  ( 1 -1  0)  (-1  0  0)  (-1  1  0)
  ( 0  0  1)  ( 0  0  1)  ( 0  0  1)  ( 0  0  1)  ( 0  0  1)  ( 0  0  1)
Note: your k-points are not as symmetric as your crystal!

16 k-points: 4 x 4 x 1 Monkhorst-Pack grid
6 k-points in the irreducible part of the Brillouin zone
       k-points in crystal coordinates                weights
   0:     0.12500000   -0.12500000    0.00000000          2/16
   1:     0.12500000    0.12500000    0.00000000          2/16
   2:     0.37500000   -0.37500000    0.00000000          2/16
   3:     0.37500000   -0.12500000    0.00000000          4/16
   4:     0.37500000    0.12500000    0.00000000          4/16
   5:     0.37500000    0.37500000    0.00000000          2/16

Wave functions: Plane wave expansion
  Cutoff energy: 200.000 eV
  Number of coefficients (min, max): 7327, 7362
  Pulay-stress correction: 0.000000 eV/Ang^3 (de/decut=0.000000)
  Using FFTW library
  ScaLapack parameters: grid=1x1, blocksize=None
  Wavefunction extrapolation:
    Improved wavefunction reuse through dual PAW basis 

Occupation numbers: Fermi-Dirac:
  width: 0.1000  # eV
 

Eigensolver
   Davidson(niter=2) 

Densities:
  Coarse grid: 30*30*56 grid
  Fine grid: 60*60*112 grid
  Total Charge: 0.000000 

Density mixing:
  Method: separate
  Backend: pulay
  Linear mixing parameter: 0.05
  old densities: 5
  Damping of long wavelength oscillations: 50 

Hamiltonian:
  XC and Coulomb potentials evaluated on a 60*60*112 grid
  Using the LDA Exchange-Correlation functional
  External potential:
    NoExternalPotential
 

Memory estimate:
  Process memory now: 269.03 MiB
  Calculator: 193.66 MiB
    Density: 21.60 MiB
      Arrays: 10.00 MiB
      Localized functions: 7.76 MiB
      Mixer: 3.85 MiB
    Hamiltonian: 6.69 MiB
      Arrays: 6.54 MiB
      XC: 0.00 MiB
      Poisson: 0.00 MiB
      vbar: 0.16 MiB
    Wavefunctions: 165.36 MiB
      Arrays psit_nG: 123.34 MiB
      Eigensolver: 26.23 MiB
      Projections: 8.14 MiB
      Projectors: 5.05 MiB
      PW-descriptor: 2.60 MiB

Total number of cores used: 1

Number of atoms: 27
Number of atomic orbitals: 243
Number of bands in calculation: 183
Number of valence electrons: 297
Bands to converge: occupied

... initialized

Initializing position-dependent things.

Density initialized from atomic densities
Timing:                              incl.     excl.
-----------------------------------------------------------
Hamiltonian:                         6.600     0.004   0.0% |
 Atomic:                             6.395     3.209   0.7% |
  XC Correction:                     3.186     3.186   0.7% |
 Calculate atomic Hamiltonians:      0.140     0.140   0.0% |
 Communicate:                        0.000     0.000   0.0% |
 Initialize Hamiltonian:             0.001     0.001   0.0% |
 Poisson:                            0.003     0.003   0.0% |
 XC 3D grid:                         0.057     0.057   0.0% |
LCAO initialization:               478.273     0.121   0.0% |
 LCAO eigensolver:                 256.090     0.008   0.0% |
  Calculate projections:             0.616     0.616   0.1% |
  DenseAtomicCorrection:            20.110    20.110   4.1% |-|
  Distribute overlap matrix:         0.007     0.007   0.0% |
  Orbital Layouts:                 234.453   234.453  47.9% |------------------|
  Potential matrix:                  0.559     0.559   0.1% |
  Sum over cells:                    0.336     0.336   0.1% |
 LCAO to grid:                     200.992   200.992  41.1% |---------------|
 Set positions (LCAO WFS):          21.069    19.800   4.0% |-|
  Basic WFS set positions:           0.003     0.003   0.0% |
  Basis functions set positions:     0.000     0.000   0.0% |
  P tci:                             1.002     1.002   0.2% |
  ST tci:                            0.172     0.172   0.0% |
  mktci:                             0.092     0.092   0.0% |
PWDescriptor:                        0.293     0.293   0.1% |
Set symmetry:                        0.004     0.004   0.0% |
Other:                               4.139     4.139   0.8% |
-----------------------------------------------------------
Total:                                       489.309 100.0%

Memory usage: 610.69 MiB
Date: Thu Feb 16 10:09:48 2023
