
  ___ ___ ___ _ _ _  
 |   |   |_  | | | | 
 | | | | | . | | | | 
 |__ |  _|___|_____|  22.8.0
 |___|_|             

User:   gotols@vera55-1
Date:   Thu Feb 16 14:36:41 2023
Arch:   x86_64
Pid:    3994007
CWD:    /cephyr/users/gotols/Vera/TIF320-Computational-materials-and-molecular-physics-Assignments
Python: 3.10.4
gpaw:   /apps/Arch/software/GPAW/22.8.0-foss-2022a/lib/python3.10/site-packages/gpaw
_gpaw:  /apps/Arch/software/GPAW/22.8.0-foss-2022a/lib/python3.10/site-packages/
        _gpaw.cpython-310-x86_64-linux-gnu.so
ase:    /apps/Arch/software/ASE/3.22.1-foss-2022a/lib/python3.10/site-packages/ase (version 3.22.1)
numpy:  /apps/Arch/software/SciPy-bundle/2022.05-foss-2022a/lib/python3.10/site-packages/numpy (version 1.22.3)
scipy:  /apps/Arch/software/SciPy-bundle/2022.05-foss-2022a/lib/python3.10/site-packages/scipy (version 1.8.1)
libxc:  5.2.3
units:  Angstrom and eV
cores: 16
OpenMP: False
OMP_NUM_THREADS: 1

Input parameters:
  kpts: [4 4 1]
  mode: {ecut: 450.00000000000006,
         name: pw}

System changes: positions, numbers, cell, pbc, initial_charges, initial_magmoms 

Initialize ...

species:
  Au:
    name: Gold
    id: a44207148b704df7bec07bf25e8feca8
    Z: 79.0
    valence: 11
    core: 68
    charge: 0.0
    file: /apps/Common/software/GPAW-setups/0.9.20000/Au.LDA.gz
    compensation charges: {type: gauss,
                           rc: 0.42,
                           lmax: 2}
    cutoffs: {filter: 2.33,
              core: 2.81}
    valence states:
      #              energy  rcut
      - 6s(1.00)    -6.048   1.323
      - 6p(0.00)    -0.888   1.323
      - 5d(10.00)    -7.129   1.323
      -  s          21.163   1.323
      -  p          26.323   1.323
      -  d          20.082   1.323
  
    # Using partial waves for Au as LCAO basis

Reference energy: -13940466.469256  # eV

Spin-paired calculation

Convergence criteria:
 Maximum [total energy] change in last 3 cyles: 0.0005 eV / electron
 Maximum integral of absolute [dens]ity change: 0.0001 electrons / valence electron
 Maximum integral of absolute [eigenst]ate change: 4e-08 eV^2 / valence electron
 Maximum number of scf [iter]ations: 333
 (Square brackets indicate name in SCF output, whereas a 'c' in
 the SCF output indicates the quantity has converged.)

Symmetries present (total): 6

  ( 1  0  0)  ( 1 -1  0)  ( 0  1  0)  ( 0 -1  0)  (-1  1  0)  (-1  0  0)
  ( 0  1  0)  ( 0 -1  0)  ( 1  0  0)  ( 1 -1  0)  (-1  0  0)  (-1  1  0)
  ( 0  0  1)  ( 0  0  1)  ( 0  0  1)  ( 0  0  1)  ( 0  0  1)  ( 0  0  1)
Note: your k-points are not as symmetric as your crystal!

16 k-points: 4 x 4 x 1 Monkhorst-Pack grid
6 k-points in the irreducible part of the Brillouin zone
       k-points in crystal coordinates                weights
   0:     0.12500000   -0.12500000    0.00000000          2/16
   1:     0.12500000    0.12500000    0.00000000          2/16
   2:     0.37500000   -0.37500000    0.00000000          2/16
   3:     0.37500000   -0.12500000    0.00000000          4/16
   4:     0.37500000    0.12500000    0.00000000          4/16
   5:     0.37500000    0.37500000    0.00000000          2/16

Wave functions: Plane wave expansion
  Cutoff energy: 450.000 eV
  Number of coefficients (min, max): 24769, 24813
  Pulay-stress correction: 0.000000 eV/Ang^3 (de/decut=0.000000)
  Using FFTW library
  ScaLapack parameters: grid=1x1, blocksize=None
  Wavefunction extrapolation:
    Improved wavefunction reuse through dual PAW basis 

Occupation numbers: Fermi-Dirac:
  width: 0.1000  # eV
 

Eigensolver
   Davidson(niter=2) 

Densities:
  Coarse grid: 45*45*84 grid
  Fine grid: 90*90*168 grid
  Total Charge: 0.000000 

Density mixing:
  Method: separate
  Backend: pulay
  Linear mixing parameter: 0.05
  old densities: 5
  Damping of long wavelength oscillations: 50 

Hamiltonian:
  XC and Coulomb potentials evaluated on a 90*90*168 grid
  Using the LDA Exchange-Correlation functional
  External potential:
    NoExternalPotential
 

Memory estimate:
  Process memory now: 315.06 MiB
  Calculator: 304.65 MiB
    Density: 9.20 MiB
      Arrays: 4.23 MiB
      Localized functions: 3.28 MiB
      Mixer: 1.70 MiB
    Hamiltonian: 2.83 MiB
      Arrays: 2.77 MiB
      XC: 0.00 MiB
      Poisson: 0.00 MiB
      vbar: 0.07 MiB
    Wavefunctions: 292.61 MiB
      Arrays psit_nG: 207.86 MiB
      Eigensolver: 76.30 MiB
      Projections: 0.51 MiB
      Projectors: 1.06 MiB
      PW-descriptor: 6.88 MiB

Total number of cores used: 16
Parallelization over k-points: 2
Domain decomposition: 2 x 2 x 2

Number of atoms: 27
Number of atomic orbitals: 243
Number of bands in calculation: 183
Number of valence electrons: 297
Bands to converge: occupied

... initialized

Initializing position-dependent things.

Density initialized from atomic densities
Creating initial wave functions:
  183 bands from LCAO basis set

                                              
                                              
                                              
                                              
                                              
                  Au     Au     Au            
                                              
            Au     AAu    AAu    Au           
       Au     Au     AAu    Au                
                                              
        Au     Au     AAu    Au     Au        
                                              
                 Au     Au     Au             
                                              
           Au      Au     Au                  
                                              
                                              
                                              
                                              

Positions:
   0 Au     1.476793    0.852627    6.000000    ( 0.0000,  0.0000,  0.0000)
   1 Au     4.430378    0.852627    6.000000    ( 0.0000,  0.0000,  0.0000)
   2 Au     7.383963    0.852627    6.000000    ( 0.0000,  0.0000,  0.0000)
   3 Au     2.953585    3.410506    6.000000    ( 0.0000,  0.0000,  0.0000)
   4 Au     5.907170    3.410506    6.000000    ( 0.0000,  0.0000,  0.0000)
   5 Au     8.860755    3.410506    6.000000    ( 0.0000,  0.0000,  0.0000)
   6 Au     4.430378    5.968386    6.000000    ( 0.0000,  0.0000,  0.0000)
   7 Au     7.383963    5.968386    6.000000    ( 0.0000,  0.0000,  0.0000)
   8 Au    10.337548    5.968386    6.000000    ( 0.0000,  0.0000,  0.0000)
   9 Au    -0.000000    1.705253    8.411592    ( 0.0000,  0.0000,  0.0000)
  10 Au     2.953585    1.705253    8.411592    ( 0.0000,  0.0000,  0.0000)
  11 Au     5.907170    1.705253    8.411592    ( 0.0000,  0.0000,  0.0000)
  12 Au     1.476793    4.263133    8.411592    ( 0.0000,  0.0000,  0.0000)
  13 Au     4.430378    4.263133    8.411592    ( 0.0000,  0.0000,  0.0000)
  14 Au     7.383963    4.263133    8.411592    ( 0.0000,  0.0000,  0.0000)
  15 Au     2.953585    6.821012    8.411592    ( 0.0000,  0.0000,  0.0000)
  16 Au     5.907170    6.821012    8.411592    ( 0.0000,  0.0000,  0.0000)
  17 Au     8.860755    6.821012    8.411592    ( 0.0000,  0.0000,  0.0000)
  18 Au     0.000000    0.000000   10.823184    ( 0.0000,  0.0000,  0.0000)
  19 Au     2.953585    0.000000   10.823184    ( 0.0000,  0.0000,  0.0000)
  20 Au     5.907170    0.000000   10.823184    ( 0.0000,  0.0000,  0.0000)
  21 Au     1.476793    2.557880   10.823184    ( 0.0000,  0.0000,  0.0000)
  22 Au     4.430378    2.557880   10.823184    ( 0.0000,  0.0000,  0.0000)
  23 Au     7.383963    2.557880   10.823184    ( 0.0000,  0.0000,  0.0000)
  24 Au     2.953585    5.115759   10.823184    ( 0.0000,  0.0000,  0.0000)
  25 Au     5.907170    5.115759   10.823184    ( 0.0000,  0.0000,  0.0000)
  26 Au     8.860755    5.115759   10.823184    ( 0.0000,  0.0000,  0.0000)

Unit cell:
           periodic     x           y           z      points  spacing
  1. axis:    yes    8.860755    0.000000    0.000000    45     0.1705
  2. axis:    yes    4.430378    7.673639    0.000000    45     0.1705
  3. axis:    no     0.000000    0.000000   16.823184    84     0.2003

  Lengths:   8.860755   8.860755  16.823184
  Angles:   90.000000  90.000000  60.000000

Effective grid spacing dv^(1/3) = 0.1888

     iter     time        total  log10-change:
                         energy  eigst   dens
iter:   1 14:36:56  -114.365981
iter:   2 14:37:01  -112.555451  -1.82  -1.32
iter:   3 14:37:06  -106.334305  -1.05  -1.34
iter:   4 14:37:11  -106.090014  -2.71  -1.81
iter:   5 14:37:17  -105.980954  -2.24  -1.87
iter:   6 14:37:22  -106.776503  -2.06  -2.12
iter:   7 14:37:27  -105.909675  -2.13  -1.92
iter:   8 14:37:32  -105.886327  -3.30  -2.75
iter:   9 14:37:37  -105.870498c -3.28  -2.80
iter:  10 14:37:43  -105.854143c -3.70  -2.78
iter:  11 14:37:48  -105.854155c -4.94  -3.35
iter:  12 14:37:53  -105.854890c -5.00  -3.36
iter:  13 14:37:58  -105.855051c -5.04  -3.26
iter:  14 14:38:03  -105.854507c -5.52  -3.26
iter:  15 14:38:09  -105.855036c -5.65  -3.38
iter:  16 14:38:14  -105.854219c -4.89  -3.26
iter:  17 14:38:19  -105.854340c -5.73  -3.56
iter:  18 14:38:24  -105.853958c -5.53  -3.64
iter:  19 14:38:29  -105.853960c -5.94  -3.84
iter:  20 14:38:34  -105.853902c -6.49  -3.99
iter:  21 14:38:40  -105.853900c -7.24  -4.18c
iter:  22 14:38:45  -105.853937c -6.74  -4.24c
iter:  23 14:38:50  -105.853947c -7.31  -4.31c
iter:  24 14:38:55  -105.853891c -6.91  -4.40c
iter:  25 14:39:00  -105.853886c -8.15c -4.65c

Converged after 25 iterations.

Dipole moment: (-0.140216, -0.080953, 0.000000) |e|*Ang

Energy contributions relative to reference atoms: (reference = -13940466.469256)

Kinetic:       -399.826697
Potential:     +333.763050
External:        +0.000000
XC:             -42.390806
Entropy (-ST):   -0.282433
Local:           +2.741783
--------------------------
Free energy:   -105.995103
Extrapolated:  -105.853886

Showing only first 2 kpts
 Kpt  Band  Eigenvalues  Occupancy
  0   146     -0.78069    1.99999
  0   147     -0.78069    1.99999
  0   148     -0.10721    1.98875
  0   149     -0.10721    1.98875

  1   146     -0.95979    2.00000
  1   147     -0.77869    1.99999
  1   148     -0.77869    1.99999
  1   149     -0.60809    1.99992


Fermi level: 0.41024

No gap

Forces in eV/Ang:
  0 Au   -0.00000   -0.00000    0.49848
  1 Au    0.00000    0.00001    0.49848
  2 Au    0.00000   -0.00000    0.49848
  3 Au    0.00001   -0.00000    0.49848
  4 Au   -0.00001   -0.00000    0.49848
  5 Au   -0.00000    0.00000    0.49848
  6 Au    0.00000    0.00000    0.49848
  7 Au    0.00000   -0.00000    0.49848
  8 Au   -0.00000   -0.00000    0.49848
  9 Au    0.00000   -0.00001    0.00000
 10 Au   -0.00000   -0.00000    0.00000
 11 Au    0.00000   -0.00000    0.00000
 12 Au    0.00000   -0.00000   -0.00000
 13 Au    0.00000    0.00000    0.00000
 14 Au   -0.00000   -0.00000   -0.00000
 15 Au    0.00001    0.00000    0.00000
 16 Au   -0.00001    0.00000    0.00000
 17 Au   -0.00000    0.00001   -0.00000
 18 Au    0.00000    0.00000   -0.49847
 19 Au   -0.00000    0.00000   -0.49848
 20 Au    0.00000    0.00000   -0.49848
 21 Au    0.00000   -0.00000   -0.49848
 22 Au   -0.00000    0.00000   -0.49848
 23 Au   -0.00000   -0.00000   -0.49848
 24 Au    0.00000    0.00000   -0.49848
 25 Au   -0.00000    0.00000   -0.49848
 26 Au   -0.00000    0.00000   -0.49848

System changes: positions 

Initializing position-dependent things.

Density initialized from wave functions
                                              
                                              
                                              
                                              
                                              
                  Au     Au     Au            
                                              
            Au     AAu    AAu    Au           
       Au     Au     AAu    Au                
                                              
        Au     Au     AAu    Au     Au        
                                              
                 Au     Au     Au             
                                              
           Au      Au     Au                  
                                              
                                              
                                              
                                              

Positions:
   0 Au     1.476792    0.852626    6.094280    ( 0.0000,  0.0000,  0.0000)
   1 Au     4.430378    0.852628    6.094281    ( 0.0000,  0.0000,  0.0000)
   2 Au     7.383963    0.852626    6.094280    ( 0.0000,  0.0000,  0.0000)
   3 Au     2.953586    3.410506    6.094281    ( 0.0000,  0.0000,  0.0000)
   4 Au     5.907169    3.410506    6.094281    ( 0.0000,  0.0000,  0.0000)
   5 Au     8.860755    3.410506    6.094281    ( 0.0000,  0.0000,  0.0000)
   6 Au     4.430378    5.968386    6.094280    ( 0.0000,  0.0000,  0.0000)
   7 Au     7.383963    5.968386    6.094281    ( 0.0000,  0.0000,  0.0000)
   8 Au    10.337547    5.968386    6.094281    ( 0.0000,  0.0000,  0.0000)
   9 Au    -0.000000    1.705252    8.411593    ( 0.0000,  0.0000,  0.0000)
  10 Au     2.953585    1.705253    8.411592    ( 0.0000,  0.0000,  0.0000)
  11 Au     5.907170    1.705253    8.411592    ( 0.0000,  0.0000,  0.0000)
  12 Au     1.476793    4.263132    8.411592    ( 0.0000,  0.0000,  0.0000)
  13 Au     4.430378    4.263133    8.411592    ( 0.0000,  0.0000,  0.0000)
  14 Au     7.383962    4.263132    8.411592    ( 0.0000,  0.0000,  0.0000)
  15 Au     2.953586    6.821013    8.411593    ( 0.0000,  0.0000,  0.0000)
  16 Au     5.907169    6.821013    8.411593    ( 0.0000,  0.0000,  0.0000)
  17 Au     8.860755    6.821013    8.411592    ( 0.0000,  0.0000,  0.0000)
  18 Au     0.000000    0.000000   10.728905    ( 0.0000,  0.0000,  0.0000)
  19 Au     2.953585    0.000000   10.728903    ( 0.0000,  0.0000,  0.0000)
  20 Au     5.907170    0.000000   10.728903    ( 0.0000,  0.0000,  0.0000)
  21 Au     1.476793    2.557879   10.728903    ( 0.0000,  0.0000,  0.0000)
  22 Au     4.430378    2.557880   10.728903    ( 0.0000,  0.0000,  0.0000)
  23 Au     7.383962    2.557879   10.728903    ( 0.0000,  0.0000,  0.0000)
  24 Au     2.953585    5.115759   10.728903    ( 0.0000,  0.0000,  0.0000)
  25 Au     5.907170    5.115759   10.728903    ( 0.0000,  0.0000,  0.0000)
  26 Au     8.860755    5.115759   10.728903    ( 0.0000,  0.0000,  0.0000)

Unit cell:
           periodic     x           y           z      points  spacing
  1. axis:    yes    8.860755    0.000000    0.000000    45     0.1705
  2. axis:    yes    4.430378    7.673639    0.000000    45     0.1705
  3. axis:    no     0.000000    0.000000   16.823184    84     0.2003

  Lengths:   8.860755   8.860755  16.823184
  Angles:   90.000000  90.000000  60.000000

Effective grid spacing dv^(1/3) = 0.1888

     iter     time        total  log10-change:
                         energy  eigst   dens
iter:   1 14:39:08  -112.290478  -0.85
iter:   2 14:39:13  -108.715352  -2.40  -1.49
iter:   3 14:39:18  -106.492404  -1.55  -1.66
iter:   4 14:39:23  -106.495373  -2.75  -2.35
iter:   5 14:39:28  -106.577185c -2.61  -2.39
iter:   6 14:39:33  -106.506764c -3.41  -2.43
iter:   7 14:39:39  -106.461297c -2.86  -2.75
iter:   8 14:39:44  -106.454184c -4.47  -3.00
iter:   9 14:39:49  -106.452704c -4.57  -3.45
iter:  10 14:39:54  -106.452791c -5.09  -3.52
iter:  11 14:39:59  -106.452794c -6.28  -3.92
iter:  12 14:40:05  -106.452621c -6.19  -3.93
iter:  13 14:40:10  -106.452496c -6.56  -4.11c
iter:  14 14:40:15  -106.452511c -6.83  -4.51c
iter:  15 14:40:20  -106.452538c -7.45c -4.56c

Converged after 15 iterations.

Dipole moment: (-0.178388, -0.102992, -0.000001) |e|*Ang

Energy contributions relative to reference atoms: (reference = -13940466.469256)

Kinetic:       -342.370517
Potential:     +284.609254
External:        +0.000000
XC:             -51.403515
Entropy (-ST):   -0.288840
Local:           +2.856660
--------------------------
Free energy:   -106.596958
Extrapolated:  -106.452538

Showing only first 2 kpts
 Kpt  Band  Eigenvalues  Occupancy
  0   146     -0.71470    1.99999
  0   147     -0.71470    1.99999
  0   148     -0.06635    1.99077
  0   149     -0.06634    1.99077

  1   146     -0.88722    2.00000
  1   147     -0.70763    1.99998
  1   148     -0.70763    1.99998
  1   149     -0.54220    1.99992


Fermi level: 0.47104

No gap

Forces in eV/Ang:
  0 Au   -0.00004   -0.00002    0.18979
  1 Au    0.00000    0.00010    0.18983
  2 Au    0.00004   -0.00002    0.18979
  3 Au    0.00008   -0.00005    0.18983
  4 Au   -0.00008   -0.00005    0.18983
  5 Au    0.00000   -0.00013    0.18975
  6 Au    0.00000    0.00004    0.18979
  7 Au   -0.00012    0.00007    0.18975
  8 Au    0.00012    0.00007    0.18975
  9 Au    0.00000   -0.00009   -0.00005
 10 Au    0.00010    0.00006    0.00004
 11 Au   -0.00010    0.00006    0.00004
 12 Au    0.00018   -0.00011    0.00001
 13 Au    0.00000   -0.00012    0.00004
 14 Au   -0.00018   -0.00011    0.00001
 15 Au    0.00008    0.00005   -0.00005
 16 Au   -0.00008    0.00005   -0.00005
 17 Au    0.00000    0.00021    0.00001
 18 Au    0.00000    0.00000   -0.18981
 19 Au    0.00004    0.00016   -0.18978
 20 Au   -0.00004    0.00016   -0.18978
 21 Au    0.00016   -0.00005   -0.18978
 22 Au   -0.00000    0.00000   -0.18983
 23 Au   -0.00016   -0.00005   -0.18978
 24 Au    0.00012   -0.00011   -0.18978
 25 Au   -0.00012   -0.00011   -0.18978
 26 Au   -0.00000    0.00000   -0.18974

System changes: positions 

Initializing position-dependent things.

Density initialized from wave functions
                                              
                                              
                                              
                                              
                                              
                  Au     Au     Au            
            Au     AAu    AAu    Au           
                                              
       Au     Au     AAu    Au                
                      Au     Au     Au        
        Au     Au      Au                     
                 Au     Au     Au             
                                              
           Au      Au     Au                  
                                              
                                              
                                              
                                              

Positions:
   0 Au     1.476783    0.852621    6.153527    ( 0.0000,  0.0000,  0.0000)
   1 Au     4.430378    0.852651    6.153536    ( 0.0000,  0.0000,  0.0000)
   2 Au     7.383972    0.852621    6.153527    ( 0.0000,  0.0000,  0.0000)
   3 Au     2.953606    3.410494    6.153536    ( 0.0000,  0.0000,  0.0000)
   4 Au     5.907149    3.410494    6.153536    ( 0.0000,  0.0000,  0.0000)
   5 Au     8.860755    3.410475    6.153518    ( 0.0000,  0.0000,  0.0000)
   6 Au     4.430378    5.968396    6.153527    ( 0.0000,  0.0000,  0.0000)
   7 Au     7.383935    5.968402    6.153518    ( 0.0000,  0.0000,  0.0000)
   8 Au    10.337575    5.968402    6.153518    ( 0.0000,  0.0000,  0.0000)
   9 Au    -0.000000    1.705230    8.411581    ( 0.0000,  0.0000,  0.0000)
  10 Au     2.953609    1.705267    8.411602    ( 0.0000,  0.0000,  0.0000)
  11 Au     5.907146    1.705267    8.411602    ( 0.0000,  0.0000,  0.0000)
  12 Au     1.476837    4.263107    8.411594    ( 0.0000,  0.0000,  0.0000)
  13 Au     4.430378    4.263105    8.411602    ( 0.0000,  0.0000,  0.0000)
  14 Au     7.383918    4.263107    8.411594    ( 0.0000,  0.0000,  0.0000)
  15 Au     2.953605    6.821024    8.411581    ( 0.0000,  0.0000,  0.0000)
  16 Au     5.907150    6.821024    8.411581    ( 0.0000,  0.0000,  0.0000)
  17 Au     8.860755    6.821064    8.411594    ( 0.0000,  0.0000,  0.0000)
  18 Au     0.000000    0.000000   10.669655    ( 0.0000,  0.0000,  0.0000)
  19 Au     2.953593    0.000039   10.669658    ( 0.0000,  0.0000,  0.0000)
  20 Au     5.907162    0.000039   10.669658    ( 0.0000,  0.0000,  0.0000)
  21 Au     1.476831    2.557867   10.669658    ( 0.0000,  0.0000,  0.0000)
  22 Au     4.430378    2.557880   10.669646    ( 0.0000,  0.0000,  0.0000)
  23 Au     7.383925    2.557867   10.669658    ( 0.0000,  0.0000,  0.0000)
  24 Au     2.953615    5.115733   10.669658    ( 0.0000,  0.0000,  0.0000)
  25 Au     5.907140    5.115733   10.669658    ( 0.0000,  0.0000,  0.0000)
  26 Au     8.860755    5.115759   10.669669    ( 0.0000,  0.0000,  0.0000)

Unit cell:
           periodic     x           y           z      points  spacing
  1. axis:    yes    8.860755    0.000000    0.000000    45     0.1705
  2. axis:    yes    4.430378    7.673639    0.000000    45     0.1705
  3. axis:    no     0.000000    0.000000   16.823184    84     0.2003

  Lengths:   8.860755   8.860755  16.823184
  Angles:   90.000000  90.000000  60.000000

Effective grid spacing dv^(1/3) = 0.1888

     iter     time        total  log10-change:
                         energy  eigst   dens
iter:   1 14:40:27  -109.058898  -1.20
iter:   2 14:40:33  -107.563722  -2.80  -1.67
iter:   3 14:40:38  -106.534419  -1.79  -1.84
iter:   4 14:40:43  -106.532343  -3.21  -2.57
iter:   5 14:40:48  -106.526235c -3.60  -2.57
iter:   6 14:40:53  -106.529415c -3.60  -2.65
iter:   7 14:40:59  -106.515772c -3.47  -3.03
