
  ___ ___ ___ _ _ _  
 |   |   |_  | | | | 
 | | | | | . | | | | 
 |__ |  _|___|_____|  22.8.0
 |___|_|             

User:   gotols@vera10-2
Date:   Thu Feb 16 11:16:25 2023
Arch:   x86_64
Pid:    441368
CWD:    /cephyr/users/gotols/Vera/TIF320-Computational-materials-and-molecular-physics-Assignments
Python: 3.10.4
gpaw:   /apps/Arch/software/GPAW/22.8.0-foss-2022a/lib/python3.10/site-packages/gpaw
_gpaw:  /apps/Arch/software/GPAW/22.8.0-foss-2022a/lib/python3.10/site-packages/
        _gpaw.cpython-310-x86_64-linux-gnu.so
ase:    /apps/Arch/software/ASE/3.22.1-foss-2022a/lib/python3.10/site-packages/ase (version 3.22.1)
numpy:  /apps/Arch/software/SciPy-bundle/2022.05-foss-2022a/lib/python3.10/site-packages/numpy (version 1.22.3)
scipy:  /apps/Arch/software/SciPy-bundle/2022.05-foss-2022a/lib/python3.10/site-packages/scipy (version 1.8.1)
libxc:  5.2.3
units:  Angstrom and eV
cores: 1
OpenMP: False
OMP_NUM_THREADS: 1

Input parameters:
  kpts: [4 4 1]
  mode: {ecut: 450.00000000000006,
         name: pw}

System changes: positions, numbers, cell, pbc, initial_charges, initial_magmoms 

Initialize ...

species:
  Au:
    name: Gold
    id: a44207148b704df7bec07bf25e8feca8
    Z: 79.0
    valence: 11
    core: 68
    charge: 0.0
    file: /apps/Common/software/GPAW-setups/0.9.20000/Au.LDA.gz
    compensation charges: {type: gauss,
                           rc: 0.42,
                           lmax: 2}
    cutoffs: {filter: 2.33,
              core: 2.81}
    valence states:
      #              energy  rcut
      - 6s(1.00)    -6.048   1.323
      - 6p(0.00)    -0.888   1.323
      - 5d(10.00)    -7.129   1.323
      -  s          21.163   1.323
      -  p          26.323   1.323
      -  d          20.082   1.323
  
    # Using partial waves for Au as LCAO basis

Reference energy: -13940466.469256  # eV

Spin-paired calculation

Convergence criteria:
 Maximum [total energy] change in last 3 cyles: 0.0005 eV / electron
 Maximum integral of absolute [dens]ity change: 0.0001 electrons / valence electron
 Maximum integral of absolute [eigenst]ate change: 4e-08 eV^2 / valence electron
 Maximum number of scf [iter]ations: 333
 (Square brackets indicate name in SCF output, whereas a 'c' in
 the SCF output indicates the quantity has converged.)

Symmetries present (total): 6

  ( 1  0  0)  ( 1 -1  0)  ( 0  1  0)  ( 0 -1  0)  (-1  1  0)  (-1  0  0)
  ( 0  1  0)  ( 0 -1  0)  ( 1  0  0)  ( 1 -1  0)  (-1  0  0)  (-1  1  0)
  ( 0  0  1)  ( 0  0  1)  ( 0  0  1)  ( 0  0  1)  ( 0  0  1)  ( 0  0  1)
Note: your k-points are not as symmetric as your crystal!

16 k-points: 4 x 4 x 1 Monkhorst-Pack grid
6 k-points in the irreducible part of the Brillouin zone
       k-points in crystal coordinates                weights
   0:     0.12500000   -0.12500000    0.00000000          2/16
   1:     0.12500000    0.12500000    0.00000000          2/16
   2:     0.37500000   -0.37500000    0.00000000          2/16
   3:     0.37500000   -0.12500000    0.00000000          4/16
   4:     0.37500000    0.12500000    0.00000000          4/16
   5:     0.37500000    0.37500000    0.00000000          2/16

Wave functions: Plane wave expansion
  Cutoff energy: 450.000 eV
  Number of coefficients (min, max): 24769, 24813
  Pulay-stress correction: 0.000000 eV/Ang^3 (de/decut=0.000000)
  Using FFTW library
  ScaLapack parameters: grid=1x1, blocksize=None
  Wavefunction extrapolation:
    Improved wavefunction reuse through dual PAW basis 

Occupation numbers: Fermi-Dirac:
  width: 0.1000  # eV
 

Eigensolver
   Davidson(niter=2) 

Densities:
  Coarse grid: 45*45*84 grid
  Fine grid: 90*90*168 grid
  Total Charge: 0.000000 

Density mixing:
  Method: separate
  Backend: pulay
  Linear mixing parameter: 0.05
  old densities: 5
  Damping of long wavelength oscillations: 50 

Hamiltonian:
  XC and Coulomb potentials evaluated on a 90*90*168 grid
  Using the LDA Exchange-Correlation functional
  External potential:
    NoExternalPotential
 

Memory estimate:
  Process memory now: 328.82 MiB
  Calculator: 621.48 MiB
    Density: 72.94 MiB
      Arrays: 33.74 MiB
      Localized functions: 26.22 MiB
      Mixer: 12.98 MiB
    Hamiltonian: 22.60 MiB
      Arrays: 22.06 MiB
      XC: 0.00 MiB
      Poisson: 0.00 MiB
      vbar: 0.54 MiB
    Wavefunctions: 525.94 MiB
      Arrays psit_nG: 415.72 MiB
      Eigensolver: 76.30 MiB
      Projections: 8.14 MiB
      Projectors: 17.02 MiB
      PW-descriptor: 8.76 MiB

Total number of cores used: 1

Number of atoms: 27
Number of atomic orbitals: 243
Number of bands in calculation: 183
Number of valence electrons: 297
Bands to converge: occupied

... initialized

Initializing position-dependent things.

Density initialized from atomic densities
Creating initial wave functions:
  183 bands from LCAO basis set

                                              
                                              
                                              
                                              
                                              
                  Au     Au     Au            
                                              
            Au     AAu    AAu    Au           
       Au     Au     AAu    Au                
                                              
        Au     Au     AAu    Au     Au        
                                              
                 Au     Au     Au             
                                              
           Au      Au     Au                  
                                              
                                              
                                              
                                              

Positions:
   0 Au     1.476793    0.852627    6.000000    ( 0.0000,  0.0000,  0.0000)
   1 Au     4.430378    0.852627    6.000000    ( 0.0000,  0.0000,  0.0000)
   2 Au     7.383963    0.852627    6.000000    ( 0.0000,  0.0000,  0.0000)
   3 Au     2.953585    3.410506    6.000000    ( 0.0000,  0.0000,  0.0000)
   4 Au     5.907170    3.410506    6.000000    ( 0.0000,  0.0000,  0.0000)
   5 Au     8.860755    3.410506    6.000000    ( 0.0000,  0.0000,  0.0000)
   6 Au     4.430378    5.968386    6.000000    ( 0.0000,  0.0000,  0.0000)
   7 Au     7.383963    5.968386    6.000000    ( 0.0000,  0.0000,  0.0000)
   8 Au    10.337548    5.968386    6.000000    ( 0.0000,  0.0000,  0.0000)
   9 Au    -0.000000    1.705253    8.411592    ( 0.0000,  0.0000,  0.0000)
  10 Au     2.953585    1.705253    8.411592    ( 0.0000,  0.0000,  0.0000)
  11 Au     5.907170    1.705253    8.411592    ( 0.0000,  0.0000,  0.0000)
  12 Au     1.476793    4.263133    8.411592    ( 0.0000,  0.0000,  0.0000)
  13 Au     4.430378    4.263133    8.411592    ( 0.0000,  0.0000,  0.0000)
  14 Au     7.383963    4.263133    8.411592    ( 0.0000,  0.0000,  0.0000)
  15 Au     2.953585    6.821012    8.411592    ( 0.0000,  0.0000,  0.0000)
  16 Au     5.907170    6.821012    8.411592    ( 0.0000,  0.0000,  0.0000)
  17 Au     8.860755    6.821012    8.411592    ( 0.0000,  0.0000,  0.0000)
  18 Au     0.000000    0.000000   10.823184    ( 0.0000,  0.0000,  0.0000)
  19 Au     2.953585    0.000000   10.823184    ( 0.0000,  0.0000,  0.0000)
  20 Au     5.907170    0.000000   10.823184    ( 0.0000,  0.0000,  0.0000)
  21 Au     1.476793    2.557880   10.823184    ( 0.0000,  0.0000,  0.0000)
  22 Au     4.430378    2.557880   10.823184    ( 0.0000,  0.0000,  0.0000)
  23 Au     7.383963    2.557880   10.823184    ( 0.0000,  0.0000,  0.0000)
  24 Au     2.953585    5.115759   10.823184    ( 0.0000,  0.0000,  0.0000)
  25 Au     5.907170    5.115759   10.823184    ( 0.0000,  0.0000,  0.0000)
  26 Au     8.860755    5.115759   10.823184    ( 0.0000,  0.0000,  0.0000)

Unit cell:
           periodic     x           y           z      points  spacing
  1. axis:    yes    8.860755    0.000000    0.000000    45     0.1705
  2. axis:    yes    4.430378    7.673639    0.000000    45     0.1705
  3. axis:    no     0.000000    0.000000   16.823184    84     0.2003

  Lengths:   8.860755   8.860755  16.823184
  Angles:   90.000000  90.000000  60.000000

Effective grid spacing dv^(1/3) = 0.1888

     iter     time        total  log10-change:
                         energy  eigst   dens
iter:   1 11:18:01  -114.365981
iter:   2 11:18:35  -112.555451  -1.82  -1.32
iter:   3 11:19:08  -106.334305  -1.05  -1.34
iter:   4 11:19:42  -106.090014  -2.71  -1.81
iter:   5 11:20:15  -105.980954  -2.24  -1.87
iter:   6 11:20:48  -106.776904  -2.06  -2.12
iter:   7 11:21:21  -105.909688  -2.13  -1.92
iter:   8 11:21:55  -105.886327  -3.30  -2.75
iter:   9 11:22:28  -105.870509c -3.28  -2.80
iter:  10 11:23:02  -105.854143c -3.70  -2.78
iter:  11 11:23:35  -105.854155c -4.94  -3.35
iter:  12 11:24:07  -105.854901c -5.00  -3.36
iter:  13 11:24:40  -105.855048c -5.03  -3.26
iter:  14 11:25:13  -105.854512c -5.52  -3.26
iter:  15 11:25:46  -105.855043c -5.64  -3.38
iter:  16 11:26:19  -105.854222c -4.88  -3.26
iter:  17 11:26:52  -105.854309c -5.81  -3.55
iter:  18 11:27:20  -105.853984c -5.48  -3.61
iter:  19 11:27:47  -105.853964c -5.97  -3.78
iter:  20 11:28:14  -105.853924c -6.44  -3.92
iter:  21 11:28:40  -105.853924c -7.09  -4.07c
iter:  22 11:29:07  -105.853961c -6.69  -4.14c
iter:  23 11:29:34  -105.853972c -7.10  -4.17c
iter:  24 11:30:01  -105.853932c -7.37  -4.31c
iter:  25 11:30:28  -105.853913c -7.78c -4.47c

Converged after 25 iterations.

Dipole moment: (-0.140267, -0.080983, -0.000000) |e|*Ang

Energy contributions relative to reference atoms: (reference = -13940466.469256)

Kinetic:       -399.368423
Potential:     +333.320094
External:        +0.000000
XC:             -42.405759
Entropy (-ST):   -0.282381
Local:           +2.741365
--------------------------
Free energy:   -105.995104
Extrapolated:  -105.853913

Showing only first 2 kpts
 Kpt  Band  Eigenvalues  Occupancy
  0   146     -0.78058    1.99999
  0   147     -0.78058    1.99999
  0   148     -0.10706    1.98873
  0   149     -0.10706    1.98873

  1   146     -0.95973    2.00000
  1   147     -0.77861    1.99999
  1   148     -0.77861    1.99999
  1   149     -0.60800    1.99992


Fermi level: 0.41027

No gap

Forces in eV/Ang:
  0 Au    0.00001    0.00000    0.50008
  1 Au    0.00000   -0.00000    0.50008
  2 Au   -0.00001    0.00000    0.50008
  3 Au   -0.00000    0.00000    0.50008
  4 Au    0.00000    0.00000    0.50008
  5 Au   -0.00000   -0.00000    0.50008
  6 Au    0.00000   -0.00001    0.50008
  7 Au   -0.00000    0.00000    0.50008
  8 Au    0.00000    0.00000    0.50008
  9 Au   -0.00000   -0.00001   -0.00000
 10 Au    0.00001    0.00000    0.00000
 11 Au   -0.00001    0.00000    0.00000
 12 Au    0.00001   -0.00001   -0.00000
 13 Au    0.00000   -0.00001    0.00000
 14 Au   -0.00001   -0.00001   -0.00000
 15 Au    0.00001    0.00000   -0.00000
 16 Au   -0.00001    0.00000   -0.00000
 17 Au    0.00000    0.00001   -0.00000
 18 Au    0.00000    0.00000   -0.50008
 19 Au   -0.00000    0.00000   -0.50008
 20 Au    0.00000    0.00000   -0.50008
 21 Au    0.00000   -0.00000   -0.50008
 22 Au   -0.00000    0.00000   -0.50009
 23 Au   -0.00000   -0.00000   -0.50008
 24 Au    0.00000   -0.00000   -0.50008
 25 Au   -0.00000   -0.00000   -0.50008
 26 Au    0.00000    0.00000   -0.50009

System changes: positions 

Initializing position-dependent things.

Density initialized from wave functions
                                              
                                              
                                              
                                              
                                              
                  Au     Au     Au            
                                              
            Au     AAu    AAu    Au           
       Au     Au     AAu    Au                
                                              
        Au     Au     AAu    Au     Au        
                                              
                 Au     Au     Au             
                                              
           Au      Au     Au                  
                                              
                                              
                                              
                                              

Positions:
   0 Au     1.476794    0.852627    6.094281    ( 0.0000,  0.0000,  0.0000)
   1 Au     4.430378    0.852626    6.094281    ( 0.0000,  0.0000,  0.0000)
   2 Au     7.383962    0.852627    6.094281    ( 0.0000,  0.0000,  0.0000)
   3 Au     2.953585    3.410506    6.094281    ( 0.0000,  0.0000,  0.0000)
   4 Au     5.907170    3.410506    6.094281    ( 0.0000,  0.0000,  0.0000)
   5 Au     8.860755    3.410506    6.094281    ( 0.0000,  0.0000,  0.0000)
   6 Au     4.430378    5.968385    6.094281    ( 0.0000,  0.0000,  0.0000)
   7 Au     7.383963    5.968386    6.094281    ( 0.0000,  0.0000,  0.0000)
   8 Au    10.337548    5.968386    6.094281    ( 0.0000,  0.0000,  0.0000)
   9 Au    -0.000000    1.705251    8.411592    ( 0.0000,  0.0000,  0.0000)
  10 Au     2.953586    1.705254    8.411592    ( 0.0000,  0.0000,  0.0000)
  11 Au     5.907169    1.705254    8.411592    ( 0.0000,  0.0000,  0.0000)
  12 Au     1.476795    4.263131    8.411592    ( 0.0000,  0.0000,  0.0000)
  13 Au     4.430378    4.263131    8.411592    ( 0.0000,  0.0000,  0.0000)
  14 Au     7.383960    4.263131    8.411592    ( 0.0000,  0.0000,  0.0000)
  15 Au     2.953587    6.821013    8.411592    ( 0.0000,  0.0000,  0.0000)
  16 Au     5.907168    6.821013    8.411592    ( 0.0000,  0.0000,  0.0000)
  17 Au     8.860755    6.821015    8.411592    ( 0.0000,  0.0000,  0.0000)
  18 Au     0.000000    0.000000   10.728904    ( 0.0000,  0.0000,  0.0000)
  19 Au     2.953585    0.000000   10.728903    ( 0.0000,  0.0000,  0.0000)
  20 Au     5.907170    0.000000   10.728903    ( 0.0000,  0.0000,  0.0000)
  21 Au     1.476793    2.557879   10.728903    ( 0.0000,  0.0000,  0.0000)
  22 Au     4.430378    2.557880   10.728902    ( 0.0000,  0.0000,  0.0000)
  23 Au     7.383962    2.557879   10.728903    ( 0.0000,  0.0000,  0.0000)
  24 Au     2.953585    5.115759   10.728903    ( 0.0000,  0.0000,  0.0000)
  25 Au     5.907170    5.115759   10.728903    ( 0.0000,  0.0000,  0.0000)
  26 Au     8.860755    5.115759   10.728902    ( 0.0000,  0.0000,  0.0000)

Unit cell:
           periodic     x           y           z      points  spacing
  1. axis:    yes    8.860755    0.000000    0.000000    45     0.1705
  2. axis:    yes    4.430378    7.673639    0.000000    45     0.1705
  3. axis:    no     0.000000    0.000000   16.823184    84     0.2003

  Lengths:   8.860755   8.860755  16.823184
  Angles:   90.000000  90.000000  60.000000

Effective grid spacing dv^(1/3) = 0.1888

     iter     time        total  log10-change:
                         energy  eigst   dens
iter:   1 11:31:03  -112.313454  -0.84
iter:   2 11:31:30  -108.722187  -2.40  -1.49
iter:   3 11:31:56  -106.492204  -1.55  -1.66
iter:   4 11:32:23  -106.495322  -2.75  -2.35
iter:   5 11:32:50  -106.578580c -2.61  -2.39
iter:   6 11:33:17  -106.506833c -3.41  -2.42
iter:   7 11:33:44  -106.461206c -2.86  -2.75
iter:   8 11:34:11  -106.454190c -4.47  -3.00
iter:   9 11:34:38  -106.452704c -4.57  -3.45
iter:  10 11:35:05  -106.452792c -5.10  -3.52
iter:  11 11:35:32  -106.452794c -6.28  -3.92
iter:  12 11:35:58  -106.452619c -6.19  -3.93
iter:  13 11:36:25  -106.452493c -6.55  -4.11c
iter:  14 11:36:52  -106.452509c -6.82  -4.52c
iter:  15 11:37:19  -106.452537c -7.42c -4.56c

Converged after 15 iterations.

Dipole moment: (-0.178383, -0.102989, 0.000000) |e|*Ang

Energy contributions relative to reference atoms: (reference = -13940466.469256)

Kinetic:       -342.360955
Potential:     +284.600498
External:        +0.000000
XC:             -51.404316
Entropy (-ST):   -0.288842
Local:           +2.856656
--------------------------
Free energy:   -106.596958
Extrapolated:  -106.452537

Showing only first 2 kpts
 Kpt  Band  Eigenvalues  Occupancy
  0   146     -0.71468    1.99999
  0   147     -0.71468    1.99999
  0   148     -0.06633    1.99077
  0   149     -0.06632    1.99077

  1   146     -0.88720    2.00000
  1   147     -0.70761    1.99998
  1   148     -0.70761    1.99998
  1   149     -0.54218    1.99992


Fermi level: 0.47106

No gap

Forces in eV/Ang:
  0 Au   -0.00002   -0.00001    0.18976
  1 Au   -0.00000    0.00008    0.18979
  2 Au    0.00002   -0.00001    0.18976
  3 Au    0.00007   -0.00004    0.18979
  4 Au   -0.00007   -0.00004    0.18979
  5 Au    0.00000   -0.00009    0.18977
  6 Au    0.00000    0.00003    0.18976
  7 Au   -0.00008    0.00005    0.18977
  8 Au    0.00008    0.00005    0.18977
  9 Au    0.00000   -0.00001   -0.00005
 10 Au    0.00007    0.00004    0.00001
 11 Au   -0.00007    0.00004    0.00001
 12 Au    0.00008   -0.00005    0.00003
 13 Au    0.00000   -0.00008    0.00001
 14 Au   -0.00008   -0.00005    0.00003
 15 Au    0.00001    0.00001   -0.00005
 16 Au   -0.00001    0.00001   -0.00005
 17 Au    0.00000    0.00010    0.00003
 18 Au    0.00000    0.00000   -0.18979
 19 Au    0.00006    0.00007   -0.18977
 20 Au   -0.00006    0.00007   -0.18977
 21 Au    0.00009    0.00002   -0.18977
 22 Au   -0.00000    0.00000   -0.18980
 23 Au   -0.00009    0.00002   -0.18977
 24 Au    0.00003   -0.00009   -0.18977
 25 Au   -0.00003   -0.00009   -0.18977
 26 Au    0.00000    0.00000   -0.18975

System changes: positions 

Initializing position-dependent things.

Density initialized from wave functions
                                              
                                              
                                              
                                              
                                              
                  Au     Au     Au            
            Au     AAu    AAu    Au           
                                              
       Au     Au     AAu    Au                
                      Au     Au     Au        
        Au     Au      Au                     
                 Au     Au     Au             
                                              
           Au      Au     Au                  
                                              
                                              
                                              
                                              

Positions:
   0 Au     1.476788    0.852624    6.153991    ( 0.0000,  0.0000,  0.0000)
   1 Au     4.430378    0.852645    6.153999    ( 0.0000,  0.0000,  0.0000)
   2 Au     7.383967    0.852624    6.153991    ( 0.0000,  0.0000,  0.0000)
   3 Au     2.953601    3.410497    6.153999    ( 0.0000,  0.0000,  0.0000)
   4 Au     5.907154    3.410497    6.153999    ( 0.0000,  0.0000,  0.0000)
   5 Au     8.860755    3.410484    6.153993    ( 0.0000,  0.0000,  0.0000)
   6 Au     4.430378    5.968391    6.153991    ( 0.0000,  0.0000,  0.0000)
   7 Au     7.383943    5.968397    6.153993    ( 0.0000,  0.0000,  0.0000)
   8 Au    10.337567    5.968397    6.153993    ( 0.0000,  0.0000,  0.0000)
   9 Au    -0.000000    1.705248    8.411580    ( 0.0000,  0.0000,  0.0000)
  10 Au     2.953602    1.705263    8.411595    ( 0.0000,  0.0000,  0.0000)
  11 Au     5.907153    1.705263    8.411595    ( 0.0000,  0.0000,  0.0000)
  12 Au     1.476815    4.263120    8.411599    ( 0.0000,  0.0000,  0.0000)
  13 Au     4.430378    4.263113    8.411595    ( 0.0000,  0.0000,  0.0000)
  14 Au     7.383940    4.263120    8.411599    ( 0.0000,  0.0000,  0.0000)
  15 Au     2.953589    6.821015    8.411580    ( 0.0000,  0.0000,  0.0000)
  16 Au     5.907166    6.821015    8.411580    ( 0.0000,  0.0000,  0.0000)
  17 Au     8.860755    6.821038    8.411599    ( 0.0000,  0.0000,  0.0000)
  18 Au     0.000000    0.000000   10.669188    ( 0.0000,  0.0000,  0.0000)
  19 Au     2.953600    0.000016   10.669191    ( 0.0000,  0.0000,  0.0000)
  20 Au     5.907155    0.000016   10.669191    ( 0.0000,  0.0000,  0.0000)
  21 Au     1.476814    2.557885   10.669191    ( 0.0000,  0.0000,  0.0000)
  22 Au     4.430378    2.557880   10.669183    ( 0.0000,  0.0000,  0.0000)
  23 Au     7.383941    2.557885   10.669191    ( 0.0000,  0.0000,  0.0000)
  24 Au     2.953591    5.115738   10.669191    ( 0.0000,  0.0000,  0.0000)
  25 Au     5.907164    5.115738   10.669191    ( 0.0000,  0.0000,  0.0000)
  26 Au     8.860755    5.115759   10.669195    ( 0.0000,  0.0000,  0.0000)

Unit cell:
           periodic     x           y           z      points  spacing
  1. axis:    yes    8.860755    0.000000    0.000000    45     0.1705
  2. axis:    yes    4.430378    7.673639    0.000000    45     0.1705
  3. axis:    no     0.000000    0.000000   16.823184    84     0.2003

  Lengths:   8.860755   8.860755  16.823184
  Angles:   90.000000  90.000000  60.000000

Effective grid spacing dv^(1/3) = 0.1888

     iter     time        total  log10-change:
                         energy  eigst   dens
iter:   1 11:37:54  -109.096500  -1.20
iter:   2 11:38:21  -107.578042  -2.79  -1.67
iter:   3 11:38:48  -106.533842  -1.78  -1.83
iter:   4 11:39:15  -106.531827  -3.21  -2.57
iter:   5 11:39:42  -106.525897c -3.58  -2.57
iter:   6 11:40:09  -106.529011c -3.60  -2.65
iter:   7 11:40:36  -106.515159c -3.45  -3.02
iter:   8 11:41:03  -106.513800c -4.70  -3.19
iter:   9 11:41:29  -106.513389c -5.41  -3.61
iter:  10 11:41:56  -106.513281c -5.64  -3.78
iter:  11 11:42:23  -106.513276c -6.58  -4.06c
iter:  12 11:42:50  -106.513296c -6.87  -4.09c
iter:  13 11:43:17  -106.513159c -6.29  -3.97
iter:  14 11:43:44  -106.513144c -7.27  -4.74c
iter:  15 11:44:11  -106.513136c -7.59c -4.78c

Converged after 15 iterations.

Dipole moment: (-0.209200, -0.120781, 0.000000) |e|*Ang

Energy contributions relative to reference atoms: (reference = -13940466.469256)

Kinetic:       -295.710031
Potential:     +244.461709
External:        +0.000000
XC:             -58.082185
Entropy (-ST):   -0.283465
Local:           +2.959103
--------------------------
Free energy:   -106.654869
Extrapolated:  -106.513136

Showing only first 2 kpts
 Kpt  Band  Eigenvalues  Occupancy
  0   146     -0.66398    1.99998
  0   147     -0.66187    1.99998
  0   148     -0.03449    1.99104
  0   149     -0.03447    1.99104

  1   146     -0.83969    2.00000
  1   147     -0.65509    1.99998
  1   148     -0.65509    1.99998
  1   149     -0.49416    1.99991


Fermi level: 0.50592

No gap

Forces in eV/Ang:
  0 Au    0.00008    0.00005   -0.09378
  1 Au    0.00000   -0.00013   -0.09379
  2 Au   -0.00008    0.00005   -0.09378
  3 Au   -0.00011    0.00006   -0.09379
  4 Au    0.00011    0.00006   -0.09379
  5 Au   -0.00000    0.00021   -0.09359
  6 Au   -0.00000   -0.00009   -0.09378
  7 Au    0.00018   -0.00011   -0.09359
  8 Au   -0.00018   -0.00011   -0.09359
  9 Au    0.00000    0.00021    0.00015
 10 Au   -0.00010   -0.00006   -0.00004
 11 Au    0.00010   -0.00006   -0.00004
 12 Au   -0.00029    0.00017   -0.00010
 13 Au    0.00000    0.00012   -0.00004
 14 Au    0.00029    0.00017   -0.00010
 15 Au   -0.00018   -0.00010    0.00015
 16 Au    0.00018   -0.00010    0.00015
 17 Au    0.00000   -0.00033   -0.00010
 18 Au   -0.00000    0.00000    0.09365
 19 Au    0.00004   -0.00010    0.09371
 20 Au   -0.00004   -0.00010    0.09371
 21 Au   -0.00007    0.00009    0.09371
 22 Au    0.00000    0.00000    0.09396
 23 Au    0.00007    0.00009    0.09371
 24 Au   -0.00011    0.00002    0.09371
 25 Au    0.00011    0.00002    0.09371
 26 Au   -0.00000    0.00000    0.09355

System changes: positions 

Initializing position-dependent things.

Density initialized from wave functions
                                              
                                              
                                              
                                              
                                              
                  Au     Au     Au            
                                              
            Au     AAu    AAu    Au           
       Au     Au     AAu    Au                
                                              
        Au     Au     AAu    Au     Au        
                                              
                 Au     Au     Au             
                                              
           Au      Au     Au                  
                                              
                                              
                                              
                                              

Positions:
   0 Au     1.476800    0.852631    6.136214    ( 0.0000,  0.0000,  0.0000)
   1 Au     4.430378    0.852624    6.136221    ( 0.0000,  0.0000,  0.0000)
   2 Au     7.383955    0.852631    6.136214    ( 0.0000,  0.0000,  0.0000)
   3 Au     2.953583    3.410507    6.136221    ( 0.0000,  0.0000,  0.0000)
   4 Au     5.907172    3.410507    6.136221    ( 0.0000,  0.0000,  0.0000)
   5 Au     8.860755    3.410518    6.136247    ( 0.0000,  0.0000,  0.0000)
   6 Au     4.430378    5.968377    6.136214    ( 0.0000,  0.0000,  0.0000)
   7 Au     7.383973    5.968380    6.136247    ( 0.0000,  0.0000,  0.0000)
   8 Au    10.337537    5.968380    6.136247    ( 0.0000,  0.0000,  0.0000)
   9 Au    -0.000000    1.705283    8.411605    ( 0.0000,  0.0000,  0.0000)
  10 Au     2.953586    1.705254    8.411589    ( 0.0000,  0.0000,  0.0000)
  11 Au     5.907169    1.705254    8.411589    ( 0.0000,  0.0000,  0.0000)
  12 Au     1.476768    4.263147    8.411583    ( 0.0000,  0.0000,  0.0000)
  13 Au     4.430378    4.263132    8.411589    ( 0.0000,  0.0000,  0.0000)
  14 Au     7.383987    4.263147    8.411583    ( 0.0000,  0.0000,  0.0000)
  15 Au     2.953559    6.820998    8.411605    ( 0.0000,  0.0000,  0.0000)
  16 Au     5.907196    6.820998    8.411605    ( 0.0000,  0.0000,  0.0000)
  17 Au     8.860755    6.820984    8.411583    ( 0.0000,  0.0000,  0.0000)
  18 Au     0.000000    0.000000   10.686945    ( 0.0000,  0.0000,  0.0000)
  19 Au     2.953608   -0.000001   10.686956    ( 0.0000,  0.0000,  0.0000)
  20 Au     5.907147   -0.000001   10.686956    ( 0.0000,  0.0000,  0.0000)
  21 Au     1.476803    2.557900   10.686956    ( 0.0000,  0.0000,  0.0000)
  22 Au     4.430378    2.557880   10.686989    ( 0.0000,  0.0000,  0.0000)
  23 Au     7.383952    2.557900   10.686956    ( 0.0000,  0.0000,  0.0000)
  24 Au     2.953573    5.115740   10.686956    ( 0.0000,  0.0000,  0.0000)
  25 Au     5.907182    5.115740   10.686956    ( 0.0000,  0.0000,  0.0000)
  26 Au     8.860755    5.115759   10.686935    ( 0.0000,  0.0000,  0.0000)

Unit cell:
           periodic     x           y           z      points  spacing
  1. axis:    yes    8.860755    0.000000    0.000000    45     0.1705
  2. axis:    yes    4.430378    7.673639    0.000000    45     0.1705
  3. axis:    no     0.000000    0.000000   16.823184    84     0.2003

  Lengths:   8.860755   8.860755  16.823184
  Angles:   90.000000  90.000000  60.000000

Effective grid spacing dv^(1/3) = 0.1888

     iter     time        total  log10-change:
                         energy  eigst   dens
iter:   1 11:44:46  -106.784009  -2.21
iter:   2 11:45:12  -106.647056  -3.85  -2.18
iter:   3 11:45:39  -106.528999  -2.74  -2.33
iter:   4 11:46:06  -106.529344c -4.06  -3.08
iter:   5 11:46:33  -106.529529c -4.86  -3.06
iter:   6 11:47:00  -106.530256c -4.87  -3.05
iter:   7 11:47:27  -106.550929c -3.48  -3.00
iter:   8 11:47:54  -106.540571c -5.05  -2.68
iter:   9 11:48:21  -106.529253c -3.23  -2.76
iter:  10 11:48:53  -106.528485c -4.54  -3.41
iter:  11 11:49:26  -106.528094c -5.71  -3.27
iter:  12 11:49:59  -106.527204c -4.42  -3.33
iter:  13 11:50:32  -106.527162c -5.80  -3.79
iter:  14 11:51:05  -106.527166c -6.12  -4.08c
iter:  15 11:51:38  -106.527155c -5.92  -4.06c
iter:  16 11:52:12  -106.527124c -6.62  -4.52c
iter:  17 11:52:45  -106.527140c -7.21  -4.39c
iter:  18 11:53:18  -106.527129c -7.57c -4.35c

Converged after 18 iterations.

Dipole moment: (-0.203383, -0.117423, -0.000001) |e|*Ang

Energy contributions relative to reference atoms: (reference = -13940466.469256)

Kinetic:       -309.628287
Potential:     +256.376125
External:        +0.000000
XC:             -56.050456
Entropy (-ST):   -0.285694
Local:           +2.918336
--------------------------
Free energy:   -106.669976
Extrapolated:  -106.527129

Showing only first 2 kpts
 Kpt  Band  Eigenvalues  Occupancy
  0   146     -0.67989    1.99998
  0   147     -0.67803    1.99998
  0   148     -0.04471    1.99102
  0   149     -0.04466    1.99101

  1   146     -0.85410    2.00000
  1   147     -0.67135    1.99998
  1   148     -0.67135    1.99998
  1   149     -0.50899    1.99991


Fermi level: 0.49540

No gap

Forces in eV/Ang:
  0 Au   -0.00009   -0.00005   -0.00317
  1 Au    0.00000    0.00043   -0.00330
  2 Au    0.00009   -0.00005   -0.00317
  3 Au    0.00037   -0.00021   -0.00330
  4 Au   -0.00037   -0.00021   -0.00330
  5 Au    0.00000   -0.00054   -0.00365
  6 Au    0.00000    0.00011   -0.00317
  7 Au   -0.00047    0.00027   -0.00365
  8 Au    0.00047    0.00027   -0.00365
  9 Au    0.00000   -0.00054   -0.00017
 10 Au    0.00022    0.00013    0.00008
 11 Au   -0.00022    0.00013    0.00008
 12 Au    0.00069   -0.00040    0.00011
 13 Au    0.00000   -0.00026    0.00008
 14 Au   -0.00069   -0.00040    0.00011
 15 Au    0.00047    0.00027   -0.00017
 16 Au   -0.00047    0.00027   -0.00017
 17 Au    0.00000    0.00080    0.00011
 18 Au   -0.00000    0.00000    0.00327
 19 Au   -0.00008    0.00040    0.00339
 20 Au    0.00008    0.00040    0.00339
 21 Au    0.00031   -0.00027    0.00339
 22 Au   -0.00000    0.00000    0.00310
 23 Au   -0.00031   -0.00027    0.00339
 24 Au    0.00038   -0.00013    0.00339
 25 Au   -0.00038   -0.00013    0.00339
 26 Au    0.00000    0.00000    0.00370

System changes: positions 

Initializing position-dependent things.

Density initialized from wave functions
                                              
                                              
                                              
                                              
                                              
                  Au     Au     Au            
                                              
            Au     AAu    AAu    Au           
       Au     Au     AAu    Au                
                                              
        Au     Au     AAu    Au     Au        
                                              
                 Au     Au     Au             
                                              
           Au      Au     Au                  
                                              
                                              
                                              
                                              

Positions:
   0 Au     1.476778    0.852618    6.135645    ( 0.0000,  0.0000,  0.0000)
   1 Au     4.430378    0.852727    6.135620    ( 0.0000,  0.0000,  0.0000)
   2 Au     7.383977    0.852618    6.135645    ( 0.0000,  0.0000,  0.0000)
   3 Au     2.953672    3.410456    6.135620    ( 0.0000,  0.0000,  0.0000)
   4 Au     5.907083    3.410456    6.135620    ( 0.0000,  0.0000,  0.0000)
   5 Au     8.860755    3.410388    6.135563    ( 0.0000,  0.0000,  0.0000)
   6 Au     4.430378    5.968403    6.135645    ( 0.0000,  0.0000,  0.0000)
   7 Au     7.383860    5.968445    6.135563    ( 0.0000,  0.0000,  0.0000)
   8 Au    10.337650    5.968445    6.135563    ( 0.0000,  0.0000,  0.0000)
   9 Au    -0.000000    1.705154    8.411563    ( 0.0000,  0.0000,  0.0000)
  10 Au     2.953640    1.705285    8.411607    ( 0.0000,  0.0000,  0.0000)
  11 Au     5.907115    1.705285    8.411607    ( 0.0000,  0.0000,  0.0000)
  12 Au     1.476934    4.263051    8.411608    ( 0.0000,  0.0000,  0.0000)
  13 Au     4.430378    4.263069    8.411607    ( 0.0000,  0.0000,  0.0000)
  14 Au     7.383821    4.263051    8.411608    ( 0.0000,  0.0000,  0.0000)
  15 Au     2.953671    6.821062    8.411563    ( 0.0000,  0.0000,  0.0000)
  16 Au     5.907084    6.821062    8.411563    ( 0.0000,  0.0000,  0.0000)
  17 Au     8.860755    6.821176    8.411608    ( 0.0000,  0.0000,  0.0000)
  18 Au     0.000000    0.000000   10.687536    ( 0.0000,  0.0000,  0.0000)
  19 Au     2.953589    0.000095   10.687579    ( 0.0000,  0.0000,  0.0000)
  20 Au     5.907166    0.000095   10.687579    ( 0.0000,  0.0000,  0.0000)
  21 Au     1.476877    2.557836   10.687579    ( 0.0000,  0.0000,  0.0000)
  22 Au     4.430378    2.557880   10.687540    ( 0.0000,  0.0000,  0.0000)
  23 Au     7.383878    2.557836   10.687579    ( 0.0000,  0.0000,  0.0000)
  24 Au     2.953665    5.115708   10.687579    ( 0.0000,  0.0000,  0.0000)
  25 Au     5.907090    5.115708   10.687579    ( 0.0000,  0.0000,  0.0000)
  26 Au     8.860755    5.115759   10.687631    ( 0.0000,  0.0000,  0.0000)

Unit cell:
           periodic     x           y           z      points  spacing
  1. axis:    yes    8.860755    0.000000    0.000000    45     0.1705
  2. axis:    yes    4.430378    7.673639    0.000000    45     0.1705
  3. axis:    no     0.000000    0.000000   16.823184    84     0.2003

  Lengths:   8.860755   8.860755  16.823184
  Angles:   90.000000  90.000000  60.000000

Effective grid spacing dv^(1/3) = 0.1888

     iter     time        total  log10-change:
                         energy  eigst   dens
iter:   1 11:54:02  -106.528104  -5.01
iter:   2 11:54:38  -106.527690  -6.58  -3.60
iter:   3 11:55:11  -106.527143c -5.54  -3.77
iter:   4 11:55:40  -106.527148c -6.85  -4.43c
iter:   5 11:56:06  -106.527140c -7.52c -4.41c

Converged after 5 iterations.

Dipole moment: (-0.206803, -0.119398, -0.000003) |e|*Ang

Energy contributions relative to reference atoms: (reference = -13940466.469256)

Kinetic:       -311.066201
Potential:     +257.688800
External:        +0.000000
XC:             -55.926017
Entropy (-ST):   -0.285673
Local:           +2.919114
--------------------------
Free energy:   -106.669977
Extrapolated:  -106.527140

Showing only first 2 kpts
 Kpt  Band  Eigenvalues  Occupancy
  0   146     -0.68049    1.99998
  0   147     -0.67897    1.99998
  0   148     -0.04496    1.99100
  0   149     -0.04491    1.99100

  1   146     -0.85500    2.00000
  1   147     -0.67199    1.99998
  1   148     -0.67198    1.99998
  1   149     -0.50952    1.99991


Fermi level: 0.49501

No gap

Forces in eV/Ang:
  0 Au   -0.00017   -0.00010    0.00843
  1 Au    0.00000   -0.00090    0.00846
  2 Au    0.00017   -0.00010    0.00843
  3 Au   -0.00078    0.00045    0.00846
  4 Au    0.00078    0.00045    0.00846
  5 Au    0.00000    0.00069    0.00863
  6 Au    0.00000    0.00020    0.00843
  7 Au    0.00059   -0.00034    0.00863
  8 Au   -0.00059   -0.00034    0.00863
  9 Au    0.00000    0.00067    0.00020
 10 Au   -0.00034   -0.00020   -0.00011
 11 Au    0.00034   -0.00020   -0.00011
 12 Au   -0.00090    0.00052   -0.00012
 13 Au    0.00000    0.00039   -0.00011
 14 Au    0.00090    0.00052   -0.00012
 15 Au   -0.00058   -0.00033    0.00020
 16 Au    0.00058   -0.00033    0.00020
 17 Au    0.00000   -0.00104   -0.00012
 18 Au   -0.00000    0.00000   -0.00838
 19 Au    0.00033   -0.00068   -0.00851
 20 Au   -0.00033   -0.00068   -0.00851
 21 Au   -0.00042    0.00062   -0.00851
 22 Au   -0.00000    0.00000   -0.00834
 23 Au    0.00042    0.00062   -0.00851
 24 Au   -0.00075    0.00005   -0.00851
 25 Au    0.00075    0.00005   -0.00851
 26 Au    0.00000    0.00000   -0.00860

System changes: positions 

Initializing position-dependent things.

Density initialized from wave functions
                                              
                                              
                                              
                                              
                                              
                  Au     Au     Au            
                                              
            Au     AAu    AAu    Au           
       Au     Au     AAu    Au                
                                              
        Au     Au     AAu    Au     Au        
                                              
                 Au     Au     Au             
                                              
           Au      Au     Au                  
                                              
                                              
                                              
                                              

Positions:
   0 Au     1.476755    0.852605    6.136435    ( 0.0000,  0.0000,  0.0000)
   1 Au     4.430378    0.852644    6.136409    ( 0.0000,  0.0000,  0.0000)
   2 Au     7.384000    0.852605    6.136435    ( 0.0000,  0.0000,  0.0000)
   3 Au     2.953600    3.410497    6.136409    ( 0.0000,  0.0000,  0.0000)
   4 Au     5.907155    3.410497    6.136409    ( 0.0000,  0.0000,  0.0000)
   5 Au     8.860755    3.410442    6.136355    ( 0.0000,  0.0000,  0.0000)
   6 Au     4.430378    5.968429    6.136435    ( 0.0000,  0.0000,  0.0000)
   7 Au     7.383907    5.968418    6.136355    ( 0.0000,  0.0000,  0.0000)
   8 Au    10.337603    5.968418    6.136355    ( 0.0000,  0.0000,  0.0000)
   9 Au    -0.000000    1.705207    8.411578    ( 0.0000,  0.0000,  0.0000)
  10 Au     2.953611    1.705268    8.411597    ( 0.0000,  0.0000,  0.0000)
  11 Au     5.907144    1.705268    8.411597    ( 0.0000,  0.0000,  0.0000)
  12 Au     1.476862    4.263093    8.411598    ( 0.0000,  0.0000,  0.0000)
  13 Au     4.430378    4.263103    8.411597    ( 0.0000,  0.0000,  0.0000)
  14 Au     7.383893    4.263093    8.411598    ( 0.0000,  0.0000,  0.0000)
  15 Au     2.953625    6.821036    8.411578    ( 0.0000,  0.0000,  0.0000)
  16 Au     5.907130    6.821036    8.411578    ( 0.0000,  0.0000,  0.0000)
  17 Au     8.860755    6.821092    8.411598    ( 0.0000,  0.0000,  0.0000)
  18 Au    -0.000000    0.000000   10.686755    ( 0.0000,  0.0000,  0.0000)
  19 Au     2.953623    0.000035   10.686789    ( 0.0000,  0.0000,  0.0000)
  20 Au     5.907132    0.000035   10.686789    ( 0.0000,  0.0000,  0.0000)
  21 Au     1.476842    2.557895   10.686789    ( 0.0000,  0.0000,  0.0000)
  22 Au     4.430378    2.557880   10.686757    ( 0.0000,  0.0000,  0.0000)
  23 Au     7.383913    2.557895   10.686789    ( 0.0000,  0.0000,  0.0000)
  24 Au     2.953596    5.115708   10.686789    ( 0.0000,  0.0000,  0.0000)
  25 Au     5.907159    5.115708   10.686789    ( 0.0000,  0.0000,  0.0000)
  26 Au     8.860755    5.115759   10.686844    ( 0.0000,  0.0000,  0.0000)

Unit cell:
           periodic     x           y           z      points  spacing
  1. axis:    yes    8.860755    0.000000    0.000000    45     0.1705
  2. axis:    yes    4.430378    7.673639    0.000000    45     0.1705
  3. axis:    no     0.000000    0.000000   16.823184    84     0.2003

  Lengths:   8.860755   8.860755  16.823184
  Angles:   90.000000  90.000000  60.000000

Effective grid spacing dv^(1/3) = 0.1888

     iter     time        total  log10-change:
                         energy  eigst   dens
iter:   1 11:56:41  -106.527069  -5.11
iter:   2 11:57:08  -106.527049  -6.67  -3.65
iter:   3 11:57:35  -106.527213c -5.71  -3.80
iter:   4 11:58:02  -106.527206c -7.04  -4.37c
iter:   5 11:58:29  -106.527217c -7.59c -4.36c

Converged after 5 iterations.

Dipole moment: (-0.201976, -0.116611, -0.000013) |e|*Ang

Energy contributions relative to reference atoms: (reference = -13940466.469256)

Kinetic:       -311.241174
Potential:     +257.908421
External:        +0.000000
XC:             -55.989525
Entropy (-ST):   -0.285512
Local:           +2.937816
--------------------------
Free energy:   -106.669973
Extrapolated:  -106.527217

Showing only first 2 kpts
 Kpt  Band  Eigenvalues  Occupancy
  0   146     -0.67910    1.99998
  0   147     -0.67715    1.99998
  0   148     -0.04382    1.99101
  0   149     -0.04382    1.99100

  1   146     -0.85324    2.00000
  1   147     -0.67058    1.99998
  1   148     -0.67058    1.99998
  1   149     -0.50819    1.99991


Fermi level: 0.49615

No gap

Forces in eV/Ang:
  0 Au    0.00084    0.00048   -0.00978
  1 Au    0.00000   -0.00032   -0.00952
  2 Au   -0.00084    0.00048   -0.00978
  3 Au   -0.00028    0.00016   -0.00952
  4 Au    0.00028    0.00016   -0.00952
  5 Au    0.00000    0.00130   -0.00748
  6 Au   -0.00000   -0.00097   -0.00978
  7 Au    0.00112   -0.00065   -0.00748
  8 Au   -0.00112   -0.00065   -0.00748
  9 Au    0.00000    0.00152    0.00080
 10 Au   -0.00062   -0.00036   -0.00022
 11 Au    0.00062   -0.00036   -0.00022
 12 Au   -0.00192    0.00111   -0.00053
 13 Au    0.00000    0.00072   -0.00022
 14 Au    0.00192    0.00111   -0.00053
 15 Au   -0.00131   -0.00076    0.00080
 16 Au    0.00131   -0.00076    0.00080
 17 Au    0.00000   -0.00221   -0.00053
 18 Au   -0.00000    0.00000    0.00962
 19 Au   -0.00067   -0.00070    0.00895
 20 Au    0.00067   -0.00070    0.00895
 21 Au   -0.00094   -0.00023    0.00895
 22 Au    0.00000    0.00000    0.01039
 23 Au    0.00094   -0.00023    0.00895
 24 Au   -0.00027    0.00093    0.00895
 25 Au    0.00027    0.00093    0.00895
 26 Au    0.00000    0.00000    0.00683

System changes: positions 

Initializing position-dependent things.

Density initialized from wave functions
                                              
                                              
                                              
                                              
                                              
                  Au     Au     Au            
                                              
            Au     AAu    AAu    Au           
       Au     Au     AAu    Au                
                                              
        Au     Au     AAu    Au     Au        
                                              
                 Au     Au     Au             
                                              
           Au      Au     Au                  
                                              
                                              
                                              
                                              

Positions:
   0 Au     1.476773    0.852615    6.135856    ( 0.0000,  0.0000,  0.0000)
   1 Au     4.430378    0.852613    6.135825    ( 0.0000,  0.0000,  0.0000)
   2 Au     7.383982    0.852615    6.135856    ( 0.0000,  0.0000,  0.0000)
   3 Au     2.953573    3.410513    6.135825    ( 0.0000,  0.0000,  0.0000)
   4 Au     5.907182    3.410513    6.135825    ( 0.0000,  0.0000,  0.0000)
   5 Au     8.860755    3.410492    6.135850    ( 0.0000,  0.0000,  0.0000)
   6 Au     4.430378    5.968409    6.135856    ( 0.0000,  0.0000,  0.0000)
   7 Au     7.383950    5.968393    6.135850    ( 0.0000,  0.0000,  0.0000)
   8 Au    10.337560    5.968393    6.135850    ( 0.0000,  0.0000,  0.0000)
   9 Au    -0.000000    1.705268    8.411615    ( 0.0000,  0.0000,  0.0000)
  10 Au     2.953580    1.705250    8.411587    ( 0.0000,  0.0000,  0.0000)
  11 Au     5.907175    1.705250    8.411587    ( 0.0000,  0.0000,  0.0000)
  12 Au     1.476780    4.263140    8.411573    ( 0.0000,  0.0000,  0.0000)
  13 Au     4.430378    4.263139    8.411587    ( 0.0000,  0.0000,  0.0000)
  14 Au     7.383975    4.263140    8.411573    ( 0.0000,  0.0000,  0.0000)
  15 Au     2.953572    6.821005    8.411615    ( 0.0000,  0.0000,  0.0000)
  16 Au     5.907183    6.821005    8.411615    ( 0.0000,  0.0000,  0.0000)
  17 Au     8.860755    6.820998    8.411573    ( 0.0000,  0.0000,  0.0000)
  18 Au    -0.000000    0.000000   10.687346    ( 0.0000,  0.0000,  0.0000)
  19 Au     2.953601   -0.000002   10.687350    ( 0.0000,  0.0000,  0.0000)
  20 Au     5.907154   -0.000002   10.687350    ( 0.0000,  0.0000,  0.0000)
  21 Au     1.476799    2.557895   10.687350    ( 0.0000,  0.0000,  0.0000)
  22 Au     4.430378    2.557880   10.687368    ( 0.0000,  0.0000,  0.0000)
  23 Au     7.383956    2.557895   10.687350    ( 0.0000,  0.0000,  0.0000)
  24 Au     2.953575    5.115746   10.687350    ( 0.0000,  0.0000,  0.0000)
  25 Au     5.907180    5.115746   10.687350    ( 0.0000,  0.0000,  0.0000)
  26 Au     8.860755    5.115759   10.687322    ( 0.0000,  0.0000,  0.0000)

Unit cell:
           periodic     x           y           z      points  spacing
  1. axis:    yes    8.860755    0.000000    0.000000    45     0.1705
  2. axis:    yes    4.430378    7.673639    0.000000    45     0.1705
  3. axis:    no     0.000000    0.000000   16.823184    84     0.2003

  Lengths:   8.860755   8.860755  16.823184
  Angles:   90.000000  90.000000  60.000000

Effective grid spacing dv^(1/3) = 0.1888

     iter     time        total  log10-change:
                         energy  eigst   dens
iter:   1 11:59:04  -106.527382  -5.56
iter:   2 11:59:32  -106.527293  -6.95  -3.88
iter:   3 11:59:59  -106.527131c -6.18  -4.00
iter:   4 12:00:27  -106.527163c -7.70c -4.48c

Converged after 4 iterations.

Dipole moment: (-0.203835, -0.117684, 0.000004) |e|*Ang

Energy contributions relative to reference atoms: (reference = -13940466.469256)

Kinetic:       -310.434751
Potential:     +257.111378
External:        +0.000000
XC:             -55.982048
Entropy (-ST):   -0.285637
Local:           +2.921077
--------------------------
Free energy:   -106.669982
Extrapolated:  -106.527163

Showing only first 2 kpts
 Kpt  Band  Eigenvalues  Occupancy
  0   146     -0.68060    1.99998
  0   147     -0.67881    1.99998
  0   148     -0.04516    1.99100
  0   149     -0.04514    1.99100

  1   146     -0.85482    2.00000
  1   147     -0.67208    1.99998
  1   148     -0.67207    1.99998
  1   149     -0.50964    1.99991


Fermi level: 0.49478

No gap

Forces in eV/Ang:
  0 Au    0.00004    0.00002    0.00040
  1 Au    0.00000    0.00070    0.00053
  2 Au   -0.00004    0.00002    0.00040
  3 Au    0.00060   -0.00035    0.00053
  4 Au   -0.00060   -0.00035    0.00053
  5 Au    0.00000   -0.00063   -0.00010
  6 Au    0.00000   -0.00004    0.00040
  7 Au   -0.00054    0.00031   -0.00010
  8 Au    0.00054    0.00031   -0.00010
  9 Au    0.00000   -0.00064   -0.00004
 10 Au    0.00031    0.00018   -0.00003
 11 Au   -0.00031    0.00018   -0.00003
 12 Au    0.00080   -0.00046    0.00010
 13 Au   -0.00000   -0.00036   -0.00003
 14 Au   -0.00080   -0.00046    0.00010
 15 Au    0.00055    0.00032   -0.00004
 16 Au   -0.00055    0.00032   -0.00004
 17 Au   -0.00000    0.00092    0.00010
 18 Au   -0.00000    0.00000   -0.00052
 19 Au   -0.00021    0.00059   -0.00035
 20 Au    0.00021    0.00059   -0.00035
 21 Au    0.00040   -0.00048   -0.00035
 22 Au    0.00000    0.00000   -0.00082
 23 Au   -0.00040   -0.00048   -0.00035
 24 Au    0.00061   -0.00011   -0.00035
 25 Au   -0.00061   -0.00011   -0.00035
 26 Au    0.00000    0.00000    0.00027

System changes: positions 

Initializing position-dependent things.

Density initialized from wave functions
                                              
                                              
                                              
                                              
                                              
                  Au     Au     Au            
                                              
            Au     AAu    AAu    Au           
       Au     Au     AAu    Au                
                                              
        Au     Au     AAu    Au     Au        
                                              
                 Au     Au     Au             
                                              
           Au      Au     Au                  
                                              
                                              
                                              
                                              

Positions:
   0 Au     1.476781    0.852620    6.135865    ( 0.0000,  0.0000,  0.0000)
   1 Au     4.430378    0.852645    6.135854    ( 0.0000,  0.0000,  0.0000)
   2 Au     7.383974    0.852620    6.135865    ( 0.0000,  0.0000,  0.0000)
   3 Au     2.953601    3.410497    6.135854    ( 0.0000,  0.0000,  0.0000)
   4 Au     5.907154    3.410497    6.135854    ( 0.0000,  0.0000,  0.0000)
   5 Au     8.860755    3.410473    6.135845    ( 0.0000,  0.0000,  0.0000)
   6 Au     4.430378    5.968399    6.135865    ( 0.0000,  0.0000,  0.0000)
   7 Au     7.383933    5.968403    6.135845    ( 0.0000,  0.0000,  0.0000)
   8 Au    10.337577    5.968403    6.135845    ( 0.0000,  0.0000,  0.0000)
   9 Au    -0.000000    1.705246    8.411618    ( 0.0000,  0.0000,  0.0000)
  10 Au     2.953593    1.705258    8.411581    ( 0.0000,  0.0000,  0.0000)
  11 Au     5.907162    1.705258    8.411581    ( 0.0000,  0.0000,  0.0000)
  12 Au     1.476807    4.263124    8.411577    ( 0.0000,  0.0000,  0.0000)
  13 Au     4.430378    4.263123    8.411581    ( 0.0000,  0.0000,  0.0000)
  14 Au     7.383948    4.263124    8.411577    ( 0.0000,  0.0000,  0.0000)
  15 Au     2.953591    6.821016    8.411618    ( 0.0000,  0.0000,  0.0000)
  16 Au     5.907164    6.821016    8.411618    ( 0.0000,  0.0000,  0.0000)
  17 Au     8.860755    6.821029    8.411577    ( 0.0000,  0.0000,  0.0000)
  18 Au    -0.000000    0.000000   10.687319    ( 0.0000,  0.0000,  0.0000)
  19 Au     2.953592    0.000023   10.687331    ( 0.0000,  0.0000,  0.0000)
  20 Au     5.907163    0.000023   10.687331    ( 0.0000,  0.0000,  0.0000)
  21 Au     1.476816    2.557875   10.687331    ( 0.0000,  0.0000,  0.0000)
  22 Au     4.430378    2.557880   10.687328    ( 0.0000,  0.0000,  0.0000)
  23 Au     7.383939    2.557875   10.687331    ( 0.0000,  0.0000,  0.0000)
  24 Au     2.953601    5.115742   10.687331    ( 0.0000,  0.0000,  0.0000)
  25 Au     5.907154    5.115742   10.687331    ( 0.0000,  0.0000,  0.0000)
  26 Au     8.860755    5.115759   10.687340    ( 0.0000,  0.0000,  0.0000)

Unit cell:
           periodic     x           y           z      points  spacing
  1. axis:    yes    8.860755    0.000000    0.000000    45     0.1705
  2. axis:    yes    4.430378    7.673639    0.000000    45     0.1705
  3. axis:    no     0.000000    0.000000   16.823184    84     0.2003

  Lengths:   8.860755   8.860755  16.823184
  Angles:   90.000000  90.000000  60.000000

Effective grid spacing dv^(1/3) = 0.1888

     iter     time        total  log10-change:
                         energy  eigst   dens
iter:   1 12:01:03  -106.527174  -6.45
iter:   2 12:01:31  -106.527173  -8.12c -4.34c
iter:   3 12:01:58  -106.527174c -6.89  -4.40c
iter:   4 12:02:26  -106.527167c -8.44c -4.99c

Converged after 4 iterations.

Dipole moment: (-0.203082, -0.117250, -0.000024) |e|*Ang

Energy contributions relative to reference atoms: (reference = -13940466.469256)

Kinetic:       -311.210578
Potential:     +257.842604
External:        +0.000000
XC:             -55.943634
Entropy (-ST):   -0.285625
Local:           +2.927254
--------------------------
Free energy:   -106.669979
Extrapolated:  -106.527167

Showing only first 2 kpts
 Kpt  Band  Eigenvalues  Occupancy
  0   146     -0.67994    1.99998
  0   147     -0.67821    1.99998
  0   148     -0.04450    1.99101
  0   149     -0.04445    1.99100

  1   146     -0.85425    2.00000
  1   147     -0.67142    1.99998
  1   148     -0.67142    1.99998
  1   149     -0.50899    1.99991


Fermi level: 0.49549

No gap

Forces in eV/Ang:
  0 Au   -0.00003   -0.00002    0.00116
  1 Au    0.00000   -0.00074    0.00109
  2 Au    0.00003   -0.00002    0.00116
  3 Au   -0.00064    0.00037    0.00109
  4 Au    0.00064    0.00037    0.00109
  5 Au    0.00000    0.00071    0.00146
  6 Au    0.00000    0.00004    0.00116
  7 Au    0.00062   -0.00036    0.00146
  8 Au   -0.00062   -0.00036    0.00146
  9 Au    0.00000    0.00052    0.00003
 10 Au   -0.00028   -0.00016    0.00015
 11 Au    0.00028   -0.00016    0.00015
 12 Au   -0.00075    0.00044    0.00014
 13 Au    0.00000    0.00032    0.00015
 14 Au    0.00075    0.00044    0.00014
 15 Au   -0.00045   -0.00026    0.00003
 16 Au    0.00045   -0.00026    0.00003
 17 Au    0.00000   -0.00087    0.00014
 18 Au    0.00000    0.00000   -0.00096
 19 Au    0.00022   -0.00067   -0.00116
 20 Au   -0.00022   -0.00067   -0.00116
 21 Au   -0.00047    0.00053   -0.00116
 22 Au   -0.00000    0.00000   -0.00096
 23 Au    0.00047    0.00053   -0.00116
 24 Au   -0.00069    0.00014   -0.00116
 25 Au    0.00069    0.00014   -0.00116
 26 Au   -0.00000    0.00000   -0.00161

System changes: positions 

Initializing position-dependent things.

Density initialized from wave functions
                                              
                                              
                                              
                                              
                                              
                  Au     Au     Au            
                                              
            Au     AAu    AAu    Au           
       Au     Au     AAu    Au                
                                              
        Au     Au     AAu    Au     Au        
                                              
                 Au     Au     Au             
                                              
           Au      Au     Au                  
                                              
                                              
                                              
                                              

Positions:
   0 Au     1.476783    0.852621    6.135908    ( 0.0000,  0.0000,  0.0000)
   1 Au     4.430378    0.852630    6.135895    ( 0.0000,  0.0000,  0.0000)
   2 Au     7.383972    0.852621    6.135908    ( 0.0000,  0.0000,  0.0000)
   3 Au     2.953588    3.410504    6.135895    ( 0.0000,  0.0000,  0.0000)
   4 Au     5.907167    3.410504    6.135895    ( 0.0000,  0.0000,  0.0000)
   5 Au     8.860755    3.410491    6.135893    ( 0.0000,  0.0000,  0.0000)
   6 Au     4.430378    5.968397    6.135908    ( 0.0000,  0.0000,  0.0000)
   7 Au     7.383949    5.968394    6.135893    ( 0.0000,  0.0000,  0.0000)
   8 Au    10.337561    5.968394    6.135893    ( 0.0000,  0.0000,  0.0000)
   9 Au    -0.000000    1.705254    8.411617    ( 0.0000,  0.0000,  0.0000)
  10 Au     2.953588    1.705255    8.411590    ( 0.0000,  0.0000,  0.0000)
  11 Au     5.907167    1.705255    8.411590    ( 0.0000,  0.0000,  0.0000)
  12 Au     1.476792    4.263133    8.411588    ( 0.0000,  0.0000,  0.0000)
  13 Au     4.430378    4.263129    8.411590    ( 0.0000,  0.0000,  0.0000)
  14 Au     7.383963    4.263133    8.411588    ( 0.0000,  0.0000,  0.0000)
  15 Au     2.953584    6.821012    8.411617    ( 0.0000,  0.0000,  0.0000)
  16 Au     5.907171    6.821012    8.411617    ( 0.0000,  0.0000,  0.0000)
  17 Au     8.860755    6.821012    8.411588    ( 0.0000,  0.0000,  0.0000)
  18 Au    -0.000000    0.000000   10.687283    ( 0.0000,  0.0000,  0.0000)
  19 Au     2.953595    0.000006   10.687289    ( 0.0000,  0.0000,  0.0000)
  20 Au     5.907160    0.000006   10.687289    ( 0.0000,  0.0000,  0.0000)
  21 Au     1.476803    2.557886   10.687289    ( 0.0000,  0.0000,  0.0000)
  22 Au     4.430378    2.557880   10.687287    ( 0.0000,  0.0000,  0.0000)
  23 Au     7.383952    2.557886   10.687289    ( 0.0000,  0.0000,  0.0000)
  24 Au     2.953585    5.115747   10.687289    ( 0.0000,  0.0000,  0.0000)
  25 Au     5.907170    5.115747   10.687289    ( 0.0000,  0.0000,  0.0000)
  26 Au     8.860755    5.115759   10.687286    ( 0.0000,  0.0000,  0.0000)

Unit cell:
           periodic     x           y           z      points  spacing
  1. axis:    yes    8.860755    0.000000    0.000000    45     0.1705
  2. axis:    yes    4.430378    7.673639    0.000000    45     0.1705
  3. axis:    no     0.000000    0.000000   16.823184    84     0.2003

  Lengths:   8.860755   8.860755  16.823184
  Angles:   90.000000  90.000000  60.000000

Effective grid spacing dv^(1/3) = 0.1888

     iter     time        total  log10-change:
                         energy  eigst   dens
iter:   1 12:03:01  -106.527118  -6.97
iter:   2 12:03:28  -106.527131  -8.59c -4.94c
iter:   3 12:03:54  -106.527149c -8.02c -5.06c

Converged after 3 iterations.

Dipole moment: (-0.202479, -0.116901, -0.000018) |e|*Ang

Energy contributions relative to reference atoms: (reference = -13940466.469256)

Kinetic:       -310.871009
Potential:     +257.526980
External:        +0.000000
XC:             -55.968131
Entropy (-ST):   -0.285661
Local:           +2.927841
--------------------------
Free energy:   -106.669980
Extrapolated:  -106.527149

Showing only first 2 kpts
 Kpt  Band  Eigenvalues  Occupancy
  0   146     -0.67995    1.99998
  0   147     -0.67821    1.99998
  0   148     -0.04455    1.99101
  0   149     -0.04454    1.99100

  1   146     -0.85425    2.00000
  1   147     -0.67142    1.99998
  1   148     -0.67142    1.99998
  1   149     -0.50899    1.99991


Fermi level: 0.49543

No gap

Forces in eV/Ang:
  0 Au    0.00006    0.00004   -0.00097
  1 Au    0.00000    0.00042   -0.00103
  2 Au   -0.00006    0.00004   -0.00097
  3 Au    0.00036   -0.00021   -0.00103
  4 Au   -0.00036   -0.00021   -0.00103
  5 Au    0.00000   -0.00037   -0.00092
  6 Au    0.00000   -0.00007   -0.00097
  7 Au   -0.00032    0.00019   -0.00092
  8 Au    0.00032    0.00019   -0.00092
  9 Au    0.00000   -0.00018   -0.00007
 10 Au    0.00010    0.00006    0.00004
 11 Au   -0.00010    0.00006    0.00004
 12 Au    0.00029   -0.00017    0.00004
 13 Au    0.00000   -0.00012    0.00004
 14 Au   -0.00029   -0.00017    0.00004
 15 Au    0.00016    0.00009   -0.00007
 16 Au   -0.00016    0.00009   -0.00007
 17 Au    0.00000    0.00033    0.00004
 18 Au    0.00000    0.00000    0.00116
 19 Au   -0.00014    0.00034    0.00102
 20 Au    0.00014    0.00034    0.00102
 21 Au    0.00022   -0.00029    0.00102
 22 Au    0.00000    0.00000    0.00101
 23 Au   -0.00022   -0.00029    0.00102
 24 Au    0.00037   -0.00005    0.00102
 25 Au   -0.00037   -0.00005    0.00102
 26 Au    0.00000    0.00000    0.00098

System changes: positions 

Initializing position-dependent things.

Density initialized from wave functions
                                              
                                              
                                              
                                              
                                              
                  Au     Au     Au            
                                              
            Au     AAu    AAu    Au           
       Au     Au     AAu    Au                
                                              
        Au     Au     AAu    Au     Au        
                                              
                 Au     Au     Au             
                                              
           Au      Au     Au                  
                                              
                                              
                                              
                                              

Positions:
   0 Au     1.476782    0.852621    6.135879    ( 0.0000,  0.0000,  0.0000)
   1 Au     4.430378    0.852638    6.135864    ( 0.0000,  0.0000,  0.0000)
   2 Au     7.383973    0.852621    6.135879    ( 0.0000,  0.0000,  0.0000)
   3 Au     2.953595    3.410501    6.135864    ( 0.0000,  0.0000,  0.0000)
   4 Au     5.907160    3.410501    6.135864    ( 0.0000,  0.0000,  0.0000)
   5 Au     8.860755    3.410481    6.135867    ( 0.0000,  0.0000,  0.0000)
   6 Au     4.430378    5.968397    6.135879    ( 0.0000,  0.0000,  0.0000)
   7 Au     7.383941    5.968398    6.135867    ( 0.0000,  0.0000,  0.0000)
   8 Au    10.337569    5.968398    6.135867    ( 0.0000,  0.0000,  0.0000)
   9 Au    -0.000000    1.705252    8.411613    ( 0.0000,  0.0000,  0.0000)
  10 Au     2.953590    1.705256    8.411591    ( 0.0000,  0.0000,  0.0000)
  11 Au     5.907165    1.705256    8.411591    ( 0.0000,  0.0000,  0.0000)
  12 Au     1.476797    4.263130    8.411589    ( 0.0000,  0.0000,  0.0000)
  13 Au     4.430378    4.263127    8.411591    ( 0.0000,  0.0000,  0.0000)
  14 Au     7.383958    4.263130    8.411589    ( 0.0000,  0.0000,  0.0000)
  15 Au     2.953586    6.821013    8.411613    ( 0.0000,  0.0000,  0.0000)
  16 Au     5.907169    6.821013    8.411613    ( 0.0000,  0.0000,  0.0000)
  17 Au     8.860755    6.821018    8.411589    ( 0.0000,  0.0000,  0.0000)
  18 Au    -0.000000    0.000000   10.687320    ( 0.0000,  0.0000,  0.0000)
  19 Au     2.953595    0.000014   10.687320    ( 0.0000,  0.0000,  0.0000)
  20 Au     5.907160    0.000014   10.687320    ( 0.0000,  0.0000,  0.0000)
  21 Au     1.476810    2.557882   10.687320    ( 0.0000,  0.0000,  0.0000)
  22 Au     4.430378    2.557880   10.687318    ( 0.0000,  0.0000,  0.0000)
  23 Au     7.383945    2.557882   10.687320    ( 0.0000,  0.0000,  0.0000)
  24 Au     2.953592    5.115743   10.687320    ( 0.0000,  0.0000,  0.0000)
  25 Au     5.907163    5.115743   10.687320    ( 0.0000,  0.0000,  0.0000)
  26 Au     8.860755    5.115759   10.687316    ( 0.0000,  0.0000,  0.0000)

Unit cell:
           periodic     x           y           z      points  spacing
  1. axis:    yes    8.860755    0.000000    0.000000    45     0.1705
  2. axis:    yes    4.430378    7.673639    0.000000    45     0.1705
  3. axis:    no     0.000000    0.000000   16.823184    84     0.2003

  Lengths:   8.860755   8.860755  16.823184
  Angles:   90.000000  90.000000  60.000000

Effective grid spacing dv^(1/3) = 0.1888

     iter     time        total  log10-change:
                         energy  eigst   dens
iter:   1 12:04:29  -106.527278  -6.50
iter:   2 12:04:56  -106.527239  -8.23c -4.54c
iter:   3 12:05:23  -106.527178c -7.12  -4.77c
iter:   4 12:05:50  -106.527178c -8.51c -5.11c

Converged after 4 iterations.

Dipole moment: (-0.202384, -0.116846, 0.000013) |e|*Ang

Energy contributions relative to reference atoms: (reference = -13940466.469256)

Kinetic:       -311.061343
Potential:     +257.703399
External:        +0.000000
XC:             -55.953131
Entropy (-ST):   -0.285602
Local:           +2.926697
--------------------------
Free energy:   -106.669979
Extrapolated:  -106.527178

Showing only first 2 kpts
 Kpt  Band  Eigenvalues  Occupancy
  0   146     -0.67997    1.99998
  0   147     -0.67824    1.99998
  0   148     -0.04451    1.99100
  0   149     -0.04449    1.99100

  1   146     -0.85428    2.00000
  1   147     -0.67146    1.99998
  1   148     -0.67146    1.99998
  1   149     -0.50902    1.99991


Fermi level: 0.49545

No gap

Forces in eV/Ang:
  0 Au   -0.00002   -0.00001    0.00102
  1 Au    0.00000   -0.00029    0.00109
  2 Au    0.00002   -0.00001    0.00102
  3 Au   -0.00025    0.00015    0.00109
  4 Au    0.00025    0.00015    0.00109
  5 Au   -0.00000    0.00029    0.00106
  6 Au    0.00000    0.00002    0.00102
  7 Au    0.00025   -0.00014    0.00106
  8 Au   -0.00025   -0.00014    0.00106
  9 Au    0.00000    0.00012   -0.00013
 10 Au   -0.00008   -0.00004   -0.00009
 11 Au    0.00008   -0.00004   -0.00009
 12 Au   -0.00015    0.00009   -0.00015
 13 Au    0.00000    0.00009   -0.00009
 14 Au    0.00015    0.00009   -0.00015
 15 Au   -0.00011   -0.00006   -0.00013
 16 Au    0.00011   -0.00006   -0.00013
 17 Au    0.00000   -0.00017   -0.00015
 18 Au    0.00000    0.00000   -0.00099
 19 Au    0.00007   -0.00021   -0.00099
 20 Au   -0.00007   -0.00021   -0.00099
 21 Au   -0.00015    0.00016   -0.00099
 22 Au   -0.00000    0.00000   -0.00101
 23 Au    0.00015    0.00016   -0.00099
 24 Au   -0.00021    0.00004   -0.00099
 25 Au    0.00021    0.00004   -0.00099
 26 Au    0.00000    0.00000   -0.00099

System changes: positions 

Initializing position-dependent things.

Density initialized from wave functions
                                              
                                              
                                              
                                              
                                              
                  Au     Au     Au            
                                              
            Au     AAu    AAu    Au           
       Au     Au     AAu    Au                
                                              
        Au     Au     AAu    Au     Au        
                                              
                 Au     Au     Au             
                                              
           Au      Au     Au                  
                                              
                                              
                                              
                                              

Positions:
   0 Au     1.476784    0.852621    6.135905    ( 0.0000,  0.0000,  0.0000)
   1 Au     4.430378    0.852633    6.135893    ( 0.0000,  0.0000,  0.0000)
   2 Au     7.383971    0.852621    6.135905    ( 0.0000,  0.0000,  0.0000)
   3 Au     2.953591    3.410503    6.135893    ( 0.0000,  0.0000,  0.0000)
   4 Au     5.907164    3.410503    6.135893    ( 0.0000,  0.0000,  0.0000)
   5 Au     8.860755    3.410488    6.135895    ( 0.0000,  0.0000,  0.0000)
   6 Au     4.430378    5.968396    6.135905    ( 0.0000,  0.0000,  0.0000)
   7 Au     7.383947    5.968395    6.135895    ( 0.0000,  0.0000,  0.0000)
   8 Au    10.337563    5.968395    6.135895    ( 0.0000,  0.0000,  0.0000)
   9 Au    -0.000000    1.705253    8.411608    ( 0.0000,  0.0000,  0.0000)
  10 Au     2.953589    1.705255    8.411588    ( 0.0000,  0.0000,  0.0000)
  11 Au     5.907166    1.705255    8.411588    ( 0.0000,  0.0000,  0.0000)
  12 Au     1.476796    4.263130    8.411584    ( 0.0000,  0.0000,  0.0000)
  13 Au     4.430378    4.263128    8.411588    ( 0.0000,  0.0000,  0.0000)
  14 Au     7.383959    4.263130    8.411584    ( 0.0000,  0.0000,  0.0000)
  15 Au     2.953585    6.821012    8.411608    ( 0.0000,  0.0000,  0.0000)
  16 Au     5.907170    6.821012    8.411608    ( 0.0000,  0.0000,  0.0000)
  17 Au     8.860755    6.821017    8.411584    ( 0.0000,  0.0000,  0.0000)
  18 Au    -0.000000    0.000000   10.687294    ( 0.0000,  0.0000,  0.0000)
  19 Au     2.953595    0.000011   10.687295    ( 0.0000,  0.0000,  0.0000)
  20 Au     5.907160    0.000011   10.687295    ( 0.0000,  0.0000,  0.0000)
  21 Au     1.476807    2.557883   10.687295    ( 0.0000,  0.0000,  0.0000)
  22 Au     4.430378    2.557880   10.687292    ( 0.0000,  0.0000,  0.0000)
  23 Au     7.383948    2.557883   10.687295    ( 0.0000,  0.0000,  0.0000)
  24 Au     2.953589    5.115745   10.687295    ( 0.0000,  0.0000,  0.0000)
  25 Au     5.907166    5.115745   10.687295    ( 0.0000,  0.0000,  0.0000)
  26 Au     8.860755    5.115759   10.687290    ( 0.0000,  0.0000,  0.0000)

Unit cell:
           periodic     x           y           z      points  spacing
  1. axis:    yes    8.860755    0.000000    0.000000    45     0.1705
  2. axis:    yes    4.430378    7.673639    0.000000    45     0.1705
  3. axis:    no     0.000000    0.000000   16.823184    84     0.2003

  Lengths:   8.860755   8.860755  16.823184
  Angles:   90.000000  90.000000  60.000000

Effective grid spacing dv^(1/3) = 0.1888

     iter     time        total  log10-change:
                         energy  eigst   dens
iter:   1 12:06:25  -106.527091  -6.68
iter:   2 12:06:51  -106.527112  -8.40c -4.65c
iter:   3 12:07:18  -106.527152c -7.27  -4.87c
iter:   4 12:07:45  -106.527151c -8.67c -5.15c

Converged after 4 iterations.

Dipole moment: (-0.202761, -0.117064, -0.000028) |e|*Ang

Energy contributions relative to reference atoms: (reference = -13940466.469256)

Kinetic:       -310.974041
Potential:     +257.622961
External:        +0.000000
XC:             -55.960837
Entropy (-ST):   -0.285656
Local:           +2.927594
--------------------------
Free energy:   -106.669979
Extrapolated:  -106.527151

Showing only first 2 kpts
 Kpt  Band  Eigenvalues  Occupancy
  0   146     -0.68000    1.99998
  0   147     -0.67825    1.99998
  0   148     -0.04458    1.99101
  0   149     -0.04458    1.99100

  1   146     -0.85428    2.00000
  1   147     -0.67146    1.99998
  1   148     -0.67146    1.99998
  1   149     -0.50903    1.99991


Fermi level: 0.49540

No gap

Forces in eV/Ang:
  0 Au    0.00008    0.00005   -0.00062
  1 Au    0.00000    0.00005   -0.00065
  2 Au   -0.00008    0.00005   -0.00062
  3 Au    0.00005   -0.00003   -0.00065
  4 Au   -0.00005   -0.00003   -0.00065
  5 Au   -0.00000    0.00005   -0.00053
  6 Au    0.00000   -0.00010   -0.00062
  7 Au    0.00004   -0.00002   -0.00053
  8 Au   -0.00004   -0.00002   -0.00053
  9 Au   -0.00000    0.00001    0.00010
 10 Au   -0.00003   -0.00001    0.00006
 11 Au    0.00003   -0.00001    0.00006
 12 Au   -0.00005    0.00003    0.00006
 13 Au    0.00000    0.00003    0.00006
 14 Au    0.00005    0.00003    0.00006
 15 Au   -0.00001   -0.00000    0.00010
 16 Au    0.00001   -0.00000    0.00010
 17 Au    0.00000   -0.00006    0.00006
 18 Au    0.00000    0.00000    0.00071
 19 Au   -0.00010   -0.00001    0.00064
 20 Au    0.00010   -0.00001    0.00064
 21 Au   -0.00006   -0.00009    0.00064
 22 Au    0.00000    0.00000    0.00073
 23 Au    0.00006   -0.00009    0.00064
 24 Au    0.00005    0.00009    0.00064
 25 Au   -0.00005    0.00009    0.00064
 26 Au   -0.00000    0.00000    0.00055

Writing to Assignment 4/output_T3/Au_111-surface_relaxed.gpaw (mode='')

Timing:                                      incl.     excl.
-------------------------------------------------------------------
Density initialized from wave functions:    21.683    21.208   0.7% |
 Symmetrize density:                         0.475     0.475   0.0% |
Forces:                                     54.472    54.472   1.8% ||
Hamiltonian:                                 8.905     0.031   0.0% |
 Atomic:                                     4.699     0.022   0.0% |
  XC Correction:                             4.677     4.677   0.2% |
 Calculate atomic Hamiltonians:              2.601     2.601   0.1% |
 Communicate:                                0.000     0.000   0.0% |
 Initialize Hamiltonian:                     0.000     0.000   0.0% |
 Poisson:                                    0.040     0.040   0.0% |
 XC 3D grid:                                 1.534     1.534   0.0% |
LCAO initialization:                        59.439     0.053   0.0% |
 LCAO eigensolver:                           1.999     0.001   0.0% |
  Calculate projections:                     0.026     0.026   0.0% |
  DenseAtomicCorrection:                     0.028     0.028   0.0% |
  Distribute overlap matrix:                 0.003     0.003   0.0% |
  Orbital Layouts:                           0.134     0.134   0.0% |
  Potential matrix:                          1.784     1.784   0.1% |
  Sum over cells:                            0.022     0.022   0.0% |
 LCAO to grid:                              55.941    55.941   1.8% ||
 Set positions (LCAO WFS):                   1.447     0.181   0.0% |
  Basic WFS set positions:                   0.004     0.004   0.0% |
  Basis functions set positions:             0.000     0.000   0.0% |
  P tci:                                     1.025     1.025   0.0% |
  ST tci:                                    0.177     0.177   0.0% |
  mktci:                                     0.059     0.059   0.0% |
PWDescriptor:                                0.352     0.352   0.0% |
Redistribute:                                0.072     0.072   0.0% |
SCF-cycle:                                2917.263     0.674   0.0% |
 Davidson:                                2618.744   472.893  15.3% |-----|
  Apply H:                                 398.822   387.341  12.6% |----|
   HMM T:                                   11.481    11.481   0.4% |
  Subspace diag:                           513.285     0.091   0.0% |
   calc_h_matrix:                          442.392    40.339   1.3% ||
    Apply H:                               402.053   390.350  12.7% |----|
     HMM T:                                 11.703    11.703   0.4% |
   diagonalize:                              5.344     5.344   0.2% |
   rotate_psi:                              65.458    65.458   2.1% ||
  calc. matrices:                         1052.179   249.992   8.1% |--|
   Apply H:                                802.187   779.176  25.3% |---------|
    HMM T:                                  23.011    23.011   0.7% |
  diagonalize:                              53.389    53.389   1.7% ||
  rotate_psi:                              128.176   128.176   4.2% |-|
 Density:                                  204.848     0.002   0.0% |
  Atomic density matrices:                   0.943     0.943   0.0% |
  Mix:                                      24.269    24.269   0.8% |
  Multipole moments:                         0.039     0.039   0.0% |
  Pseudo density:                          179.596   175.189   5.7% |-|
   Symmetrize density:                       4.407     4.407   0.1% |
 Hamiltonian:                               76.140     0.255   0.0% |
  Atomic:                                   40.729     0.189   0.0% |
   XC Correction:                           40.541    40.541   1.3% ||
  Calculate atomic Hamiltonians:            21.902    21.902   0.7% |
  Communicate:                               0.001     0.001   0.0% |
  Poisson:                                   0.363     0.363   0.0% |
  XC 3D grid:                               12.890    12.890   0.4% |
 Orthonormalize:                            16.857     0.012   0.0% |
  calc_s_matrix:                             2.482     2.482   0.1% |
  inverse-cholesky:                          0.124     0.124   0.0% |
  projections:                              10.361    10.361   0.3% |
  rotate_psi_s:                              3.879     3.879   0.1% |
Set symmetry:                                0.006     0.006   0.0% |
Other:                                      22.190    22.190   0.7% |
-------------------------------------------------------------------
Total:                                              3084.383 100.0%

Memory usage: 1.53 GiB
Date: Thu Feb 16 12:07:49 2023
