27
Lattice="8.860755075048626 0.0 0.0 4.430377537524313 7.673638991703999 0.0 0.0 0.0 16.823184148810135" Properties=species:S:1:pos:R:3:tags:I:1:forces:R:3:magmoms:R:1 energy=-78.85328251682762 dipole="-0.11558061782245625 -0.06673050081283381 2.9294365267317382e-06" magmom=0.0 free_energy=-78.98932204894942 pbc="T T F"
Au       1.47680556       0.85263409       5.98301434        3      -0.00008170      -0.00004717      -0.00089671       0.00000000
Au       4.43037754       0.85261004       5.98301611        3       0.00000000       0.00013227      -0.00101215       0.00000000
Au       7.38394951       0.85263409       5.98301434        3       0.00008170      -0.00004717      -0.00089671       0.00000000
Au       2.95357072       3.41051448       5.98301611        3       0.00011455      -0.00006613      -0.00101215       0.00000000
Au       5.90718435       3.41051448       5.98301611        3      -0.00011455      -0.00006613      -0.00101215       0.00000000
Au       8.86075508       3.41053593       5.98302815        3       0.00000000      -0.00023310      -0.00115932       0.00000000
Au       4.43037754       5.96837082       5.98301434        3      -0.00000000       0.00009434      -0.00089671       0.00000000
Au       7.38398829       5.96837103       5.98302815        3      -0.00020187       0.00011655      -0.00115932       0.00000000
Au      10.33752186       5.96837103       5.98302815        3       0.00020187       0.00011655      -0.00115932       0.00000000
Au      -0.00000000       1.70529235       8.41159134        2      -0.00000000      -0.00034363       0.00000516       0.00000000
Au       2.95359159       1.70525690       8.41159243        2      -0.00005770      -0.00003332      -0.00001384       0.00000000
Au       5.90716349       1.70525690       8.41159243        2       0.00005770      -0.00003332      -0.00001384       0.00000000
Au       1.47676749       4.26314722       8.41159337        2       0.00023752      -0.00013713      -0.00001183       0.00000000
Au       4.43037754       4.26312520       8.41159243        2       0.00000000       0.00006663      -0.00001384       0.00000000
Au       7.38398758       4.26314722       8.41159337        2      -0.00023752      -0.00013713      -0.00001183       0.00000000
Au       2.95355105       6.82099282       8.41159134        2       0.00029760       0.00017182       0.00000516       0.00000000
Au       5.90720403       6.82099282       8.41159134        2      -0.00029760       0.00017182       0.00000516       0.00000000
Au       8.86075508       6.82098355       8.41159337        2       0.00000000       0.00027426      -0.00001183       0.00000000
Au       0.00000000       0.00000000      10.84016798        1      -0.00000000       0.00000000       0.00082460       0.00000000
Au       2.95360848      -0.00001510      10.84016494        1      -0.00017733       0.00011676       0.00101937       0.00000000
Au       5.90714660      -0.00001510      10.84016494        1       0.00017733       0.00011676       0.00101937       0.00000000
Au       1.47679116       2.55790753      10.84016494        1       0.00001246      -0.00021195       0.00101937       0.00000000
Au       4.43037754       2.55787966      10.84017583        1      -0.00000000       0.00000000       0.00092397       0.00000000
Au       7.38396392       2.55790753      10.84016494        1      -0.00001246      -0.00021195       0.00101937       0.00000000
Au       2.95356022       5.11574657      10.84016494        1       0.00018978       0.00009519       0.00101937       0.00000000
Au       5.90719486       5.11574657      10.84016494        1      -0.00018978       0.00009519       0.00101937       0.00000000
Au       8.86075508       5.11575933      10.84015096        1       0.00000000       0.00000000       0.00125573       0.00000000
