
  ___ ___ ___ _ _ _  
 |   |   |_  | | | | 
 | | | | | . | | | | 
 |__ |  _|___|_____|  22.8.0
 |___|_|             

User:   gotols@vera55-1
Date:   Thu Feb 16 14:36:41 2023
Arch:   x86_64
Pid:    3994007
CWD:    /cephyr/users/gotols/Vera/TIF320-Computational-materials-and-molecular-physics-Assignments
Python: 3.10.4
gpaw:   /apps/Arch/software/GPAW/22.8.0-foss-2022a/lib/python3.10/site-packages/gpaw
_gpaw:  /apps/Arch/software/GPAW/22.8.0-foss-2022a/lib/python3.10/site-packages/
        _gpaw.cpython-310-x86_64-linux-gnu.so
ase:    /apps/Arch/software/ASE/3.22.1-foss-2022a/lib/python3.10/site-packages/ase (version 3.22.1)
numpy:  /apps/Arch/software/SciPy-bundle/2022.05-foss-2022a/lib/python3.10/site-packages/numpy (version 1.22.3)
scipy:  /apps/Arch/software/SciPy-bundle/2022.05-foss-2022a/lib/python3.10/site-packages/scipy (version 1.8.1)
libxc:  5.2.3
units:  Angstrom and eV
cores: 16
OpenMP: False
OMP_NUM_THREADS: 1

Input parameters:
  kpts: [4 4 1]
  mode: {ecut: 450.00000000000006,
         name: pw}

System changes: positions, numbers, cell, pbc, initial_charges, initial_magmoms 

Initialize ...

species:
  Au:
    name: Gold
    id: a44207148b704df7bec07bf25e8feca8
    Z: 79.0
    valence: 11
    core: 68
    charge: 0.0
    file: /apps/Common/software/GPAW-setups/0.9.20000/Au.LDA.gz
    compensation charges: {type: gauss,
                           rc: 0.42,
                           lmax: 2}
    cutoffs: {filter: 2.33,
              core: 2.81}
    valence states:
      #              energy  rcut
      - 6s(1.00)    -6.048   1.323
      - 6p(0.00)    -0.888   1.323
      - 5d(10.00)    -7.129   1.323
      -  s          21.163   1.323
      -  p          26.323   1.323
      -  d          20.082   1.323
  
    # Using partial waves for Au as LCAO basis

Reference energy: -13940466.469256  # eV

Spin-paired calculation

Convergence criteria:
 Maximum [total energy] change in last 3 cyles: 0.0005 eV / electron
 Maximum integral of absolute [dens]ity change: 0.0001 electrons / valence electron
 Maximum integral of absolute [eigenst]ate change: 4e-08 eV^2 / valence electron
 Maximum number of scf [iter]ations: 333
 (Square brackets indicate name in SCF output, whereas a 'c' in
 the SCF output indicates the quantity has converged.)

Symmetries present (total): 6

  ( 1  0  0)  ( 1 -1  0)  ( 0  1  0)  ( 0 -1  0)  (-1  1  0)  (-1  0  0)
  ( 0  1  0)  ( 0 -1  0)  ( 1  0  0)  ( 1 -1  0)  (-1  0  0)  (-1  1  0)
  ( 0  0  1)  ( 0  0  1)  ( 0  0  1)  ( 0  0  1)  ( 0  0  1)  ( 0  0  1)
Note: your k-points are not as symmetric as your crystal!

16 k-points: 4 x 4 x 1 Monkhorst-Pack grid
6 k-points in the irreducible part of the Brillouin zone
       k-points in crystal coordinates                weights
   0:     0.12500000   -0.12500000    0.00000000          2/16
   1:     0.12500000    0.12500000    0.00000000          2/16
   2:     0.37500000   -0.37500000    0.00000000          2/16
   3:     0.37500000   -0.12500000    0.00000000          4/16
   4:     0.37500000    0.12500000    0.00000000          4/16
   5:     0.37500000    0.37500000    0.00000000          2/16

Wave functions: Plane wave expansion
  Cutoff energy: 450.000 eV
  Number of coefficients (min, max): 24769, 24813
  Pulay-stress correction: 0.000000 eV/Ang^3 (de/decut=0.000000)
  Using FFTW library
  ScaLapack parameters: grid=1x1, blocksize=None
  Wavefunction extrapolation:
    Improved wavefunction reuse through dual PAW basis 

Occupation numbers: Fermi-Dirac:
  width: 0.1000  # eV
 

Eigensolver
   Davidson(niter=2) 

Densities:
  Coarse grid: 45*45*84 grid
  Fine grid: 90*90*168 grid
  Total Charge: 0.000000 

Density mixing:
  Method: separate
  Backend: pulay
  Linear mixing parameter: 0.05
  old densities: 5
  Damping of long wavelength oscillations: 50 

Hamiltonian:
  XC and Coulomb potentials evaluated on a 90*90*168 grid
  Using the LDA Exchange-Correlation functional
  External potential:
    NoExternalPotential
 

Memory estimate:
  Process memory now: 315.06 MiB
  Calculator: 304.65 MiB
    Density: 9.20 MiB
      Arrays: 4.23 MiB
      Localized functions: 3.28 MiB
      Mixer: 1.70 MiB
    Hamiltonian: 2.83 MiB
      Arrays: 2.77 MiB
      XC: 0.00 MiB
      Poisson: 0.00 MiB
      vbar: 0.07 MiB
    Wavefunctions: 292.61 MiB
      Arrays psit_nG: 207.86 MiB
      Eigensolver: 76.30 MiB
      Projections: 0.51 MiB
      Projectors: 1.06 MiB
      PW-descriptor: 6.88 MiB

Total number of cores used: 16
Parallelization over k-points: 2
Domain decomposition: 2 x 2 x 2

Number of atoms: 27
Number of atomic orbitals: 243
Number of bands in calculation: 183
Number of valence electrons: 297
Bands to converge: occupied

... initialized

Initializing position-dependent things.

Density initialized from atomic densities
Creating initial wave functions:
  183 bands from LCAO basis set

                                              
                                              
                                              
                                              
                                              
                  Au     Au     Au            
                                              
            Au     AAu    AAu    Au           
       Au     Au     AAu    Au                
                                              
        Au     Au     AAu    Au     Au        
                                              
                 Au     Au     Au             
                                              
           Au      Au     Au                  
                                              
                                              
                                              
                                              

Positions:
   0 Au     1.476793    0.852627    6.000000    ( 0.0000,  0.0000,  0.0000)
   1 Au     4.430378    0.852627    6.000000    ( 0.0000,  0.0000,  0.0000)
   2 Au     7.383963    0.852627    6.000000    ( 0.0000,  0.0000,  0.0000)
   3 Au     2.953585    3.410506    6.000000    ( 0.0000,  0.0000,  0.0000)
   4 Au     5.907170    3.410506    6.000000    ( 0.0000,  0.0000,  0.0000)
   5 Au     8.860755    3.410506    6.000000    ( 0.0000,  0.0000,  0.0000)
   6 Au     4.430378    5.968386    6.000000    ( 0.0000,  0.0000,  0.0000)
   7 Au     7.383963    5.968386    6.000000    ( 0.0000,  0.0000,  0.0000)
   8 Au    10.337548    5.968386    6.000000    ( 0.0000,  0.0000,  0.0000)
   9 Au    -0.000000    1.705253    8.411592    ( 0.0000,  0.0000,  0.0000)
  10 Au     2.953585    1.705253    8.411592    ( 0.0000,  0.0000,  0.0000)
  11 Au     5.907170    1.705253    8.411592    ( 0.0000,  0.0000,  0.0000)
  12 Au     1.476793    4.263133    8.411592    ( 0.0000,  0.0000,  0.0000)
  13 Au     4.430378    4.263133    8.411592    ( 0.0000,  0.0000,  0.0000)
  14 Au     7.383963    4.263133    8.411592    ( 0.0000,  0.0000,  0.0000)
  15 Au     2.953585    6.821012    8.411592    ( 0.0000,  0.0000,  0.0000)
  16 Au     5.907170    6.821012    8.411592    ( 0.0000,  0.0000,  0.0000)
  17 Au     8.860755    6.821012    8.411592    ( 0.0000,  0.0000,  0.0000)
  18 Au     0.000000    0.000000   10.823184    ( 0.0000,  0.0000,  0.0000)
  19 Au     2.953585    0.000000   10.823184    ( 0.0000,  0.0000,  0.0000)
  20 Au     5.907170    0.000000   10.823184    ( 0.0000,  0.0000,  0.0000)
  21 Au     1.476793    2.557880   10.823184    ( 0.0000,  0.0000,  0.0000)
  22 Au     4.430378    2.557880   10.823184    ( 0.0000,  0.0000,  0.0000)
  23 Au     7.383963    2.557880   10.823184    ( 0.0000,  0.0000,  0.0000)
  24 Au     2.953585    5.115759   10.823184    ( 0.0000,  0.0000,  0.0000)
  25 Au     5.907170    5.115759   10.823184    ( 0.0000,  0.0000,  0.0000)
  26 Au     8.860755    5.115759   10.823184    ( 0.0000,  0.0000,  0.0000)

Unit cell:
           periodic     x           y           z      points  spacing
  1. axis:    yes    8.860755    0.000000    0.000000    45     0.1705
  2. axis:    yes    4.430378    7.673639    0.000000    45     0.1705
  3. axis:    no     0.000000    0.000000   16.823184    84     0.2003

  Lengths:   8.860755   8.860755  16.823184
  Angles:   90.000000  90.000000  60.000000

Effective grid spacing dv^(1/3) = 0.1888

     iter     time        total  log10-change:
                         energy  eigst   dens
iter:   1 14:36:56  -114.365981
iter:   2 14:37:01  -112.555451  -1.82  -1.32
iter:   3 14:37:06  -106.334305  -1.05  -1.34
iter:   4 14:37:11  -106.090014  -2.71  -1.81
iter:   5 14:37:17  -105.980954  -2.24  -1.87
iter:   6 14:37:22  -106.776503  -2.06  -2.12
iter:   7 14:37:27  -105.909675  -2.13  -1.92
iter:   8 14:37:32  -105.886327  -3.30  -2.75
iter:   9 14:37:37  -105.870498c -3.28  -2.80
iter:  10 14:37:43  -105.854143c -3.70  -2.78
iter:  11 14:37:48  -105.854155c -4.94  -3.35
iter:  12 14:37:53  -105.854890c -5.00  -3.36
iter:  13 14:37:58  -105.855051c -5.04  -3.26
iter:  14 14:38:03  -105.854507c -5.52  -3.26
iter:  15 14:38:09  -105.855036c -5.65  -3.38
iter:  16 14:38:14  -105.854219c -4.89  -3.26
iter:  17 14:38:19  -105.854340c -5.73  -3.56
iter:  18 14:38:24  -105.853958c -5.53  -3.64
iter:  19 14:38:29  -105.853960c -5.94  -3.84
iter:  20 14:38:34  -105.853902c -6.49  -3.99
iter:  21 14:38:40  -105.853900c -7.24  -4.18c
iter:  22 14:38:45  -105.853937c -6.74  -4.24c
iter:  23 14:38:50  -105.853947c -7.31  -4.31c
iter:  24 14:38:55  -105.853891c -6.91  -4.40c
iter:  25 14:39:00  -105.853886c -8.15c -4.65c

Converged after 25 iterations.

Dipole moment: (-0.140216, -0.080953, 0.000000) |e|*Ang

Energy contributions relative to reference atoms: (reference = -13940466.469256)

Kinetic:       -399.826697
Potential:     +333.763050
External:        +0.000000
XC:             -42.390806
Entropy (-ST):   -0.282433
Local:           +2.741783
--------------------------
Free energy:   -105.995103
Extrapolated:  -105.853886

Showing only first 2 kpts
 Kpt  Band  Eigenvalues  Occupancy
  0   146     -0.78069    1.99999
  0   147     -0.78069    1.99999
  0   148     -0.10721    1.98875
  0   149     -0.10721    1.98875

  1   146     -0.95979    2.00000
  1   147     -0.77869    1.99999
  1   148     -0.77869    1.99999
  1   149     -0.60809    1.99992


Fermi level: 0.41024

No gap

Forces in eV/Ang:
  0 Au   -0.00000   -0.00000    0.49848
  1 Au    0.00000    0.00001    0.49848
  2 Au    0.00000   -0.00000    0.49848
  3 Au    0.00001   -0.00000    0.49848
  4 Au   -0.00001   -0.00000    0.49848
  5 Au   -0.00000    0.00000    0.49848
  6 Au    0.00000    0.00000    0.49848
  7 Au    0.00000   -0.00000    0.49848
  8 Au   -0.00000   -0.00000    0.49848
  9 Au    0.00000   -0.00001    0.00000
 10 Au   -0.00000   -0.00000    0.00000
 11 Au    0.00000   -0.00000    0.00000
 12 Au    0.00000   -0.00000   -0.00000
 13 Au    0.00000    0.00000    0.00000
 14 Au   -0.00000   -0.00000   -0.00000
 15 Au    0.00001    0.00000    0.00000
 16 Au   -0.00001    0.00000    0.00000
 17 Au   -0.00000    0.00001   -0.00000
 18 Au    0.00000    0.00000   -0.49847
 19 Au   -0.00000    0.00000   -0.49848
 20 Au    0.00000    0.00000   -0.49848
 21 Au    0.00000   -0.00000   -0.49848
 22 Au   -0.00000    0.00000   -0.49848
 23 Au   -0.00000   -0.00000   -0.49848
 24 Au    0.00000    0.00000   -0.49848
 25 Au   -0.00000    0.00000   -0.49848
 26 Au   -0.00000    0.00000   -0.49848

System changes: positions 

Initializing position-dependent things.

Density initialized from wave functions
                                              
                                              
                                              
                                              
                                              
                  Au     Au     Au            
                                              
            Au     AAu    AAu    Au           
       Au     Au     AAu    Au                
                                              
        Au     Au     AAu    Au     Au        
                                              
                 Au     Au     Au             
                                              
           Au      Au     Au                  
                                              
                                              
                                              
                                              

Positions:
   0 Au     1.476792    0.852626    6.094280    ( 0.0000,  0.0000,  0.0000)
   1 Au     4.430378    0.852628    6.094281    ( 0.0000,  0.0000,  0.0000)
   2 Au     7.383963    0.852626    6.094280    ( 0.0000,  0.0000,  0.0000)
   3 Au     2.953586    3.410506    6.094281    ( 0.0000,  0.0000,  0.0000)
   4 Au     5.907169    3.410506    6.094281    ( 0.0000,  0.0000,  0.0000)
   5 Au     8.860755    3.410506    6.094281    ( 0.0000,  0.0000,  0.0000)
   6 Au     4.430378    5.968386    6.094280    ( 0.0000,  0.0000,  0.0000)
   7 Au     7.383963    5.968386    6.094281    ( 0.0000,  0.0000,  0.0000)
   8 Au    10.337547    5.968386    6.094281    ( 0.0000,  0.0000,  0.0000)
   9 Au    -0.000000    1.705252    8.411593    ( 0.0000,  0.0000,  0.0000)
  10 Au     2.953585    1.705253    8.411592    ( 0.0000,  0.0000,  0.0000)
  11 Au     5.907170    1.705253    8.411592    ( 0.0000,  0.0000,  0.0000)
  12 Au     1.476793    4.263132    8.411592    ( 0.0000,  0.0000,  0.0000)
  13 Au     4.430378    4.263133    8.411592    ( 0.0000,  0.0000,  0.0000)
  14 Au     7.383962    4.263132    8.411592    ( 0.0000,  0.0000,  0.0000)
  15 Au     2.953586    6.821013    8.411593    ( 0.0000,  0.0000,  0.0000)
  16 Au     5.907169    6.821013    8.411593    ( 0.0000,  0.0000,  0.0000)
  17 Au     8.860755    6.821013    8.411592    ( 0.0000,  0.0000,  0.0000)
  18 Au     0.000000    0.000000   10.728905    ( 0.0000,  0.0000,  0.0000)
  19 Au     2.953585    0.000000   10.728903    ( 0.0000,  0.0000,  0.0000)
  20 Au     5.907170    0.000000   10.728903    ( 0.0000,  0.0000,  0.0000)
  21 Au     1.476793    2.557879   10.728903    ( 0.0000,  0.0000,  0.0000)
  22 Au     4.430378    2.557880   10.728903    ( 0.0000,  0.0000,  0.0000)
  23 Au     7.383962    2.557879   10.728903    ( 0.0000,  0.0000,  0.0000)
  24 Au     2.953585    5.115759   10.728903    ( 0.0000,  0.0000,  0.0000)
  25 Au     5.907170    5.115759   10.728903    ( 0.0000,  0.0000,  0.0000)
  26 Au     8.860755    5.115759   10.728903    ( 0.0000,  0.0000,  0.0000)

Unit cell:
           periodic     x           y           z      points  spacing
  1. axis:    yes    8.860755    0.000000    0.000000    45     0.1705
  2. axis:    yes    4.430378    7.673639    0.000000    45     0.1705
  3. axis:    no     0.000000    0.000000   16.823184    84     0.2003

  Lengths:   8.860755   8.860755  16.823184
  Angles:   90.000000  90.000000  60.000000

Effective grid spacing dv^(1/3) = 0.1888

     iter     time        total  log10-change:
                         energy  eigst   dens
iter:   1 14:39:08  -112.290478  -0.85
iter:   2 14:39:13  -108.715352  -2.40  -1.49
iter:   3 14:39:18  -106.492404  -1.55  -1.66
iter:   4 14:39:23  -106.495373  -2.75  -2.35
iter:   5 14:39:28  -106.577185c -2.61  -2.39
iter:   6 14:39:33  -106.506764c -3.41  -2.43
iter:   7 14:39:39  -106.461297c -2.86  -2.75
iter:   8 14:39:44  -106.454184c -4.47  -3.00
iter:   9 14:39:49  -106.452704c -4.57  -3.45
iter:  10 14:39:54  -106.452791c -5.09  -3.52
iter:  11 14:39:59  -106.452794c -6.28  -3.92
iter:  12 14:40:05  -106.452621c -6.19  -3.93
iter:  13 14:40:10  -106.452496c -6.56  -4.11c
iter:  14 14:40:15  -106.452511c -6.83  -4.51c
iter:  15 14:40:20  -106.452538c -7.45c -4.56c

Converged after 15 iterations.

Dipole moment: (-0.178388, -0.102992, -0.000001) |e|*Ang

Energy contributions relative to reference atoms: (reference = -13940466.469256)

Kinetic:       -342.370517
Potential:     +284.609254
External:        +0.000000
XC:             -51.403515
Entropy (-ST):   -0.288840
Local:           +2.856660
--------------------------
Free energy:   -106.596958
Extrapolated:  -106.452538

Showing only first 2 kpts
 Kpt  Band  Eigenvalues  Occupancy
  0   146     -0.71470    1.99999
  0   147     -0.71470    1.99999
  0   148     -0.06635    1.99077
  0   149     -0.06634    1.99077

  1   146     -0.88722    2.00000
  1   147     -0.70763    1.99998
  1   148     -0.70763    1.99998
  1   149     -0.54220    1.99992


Fermi level: 0.47104

No gap

Forces in eV/Ang:
  0 Au   -0.00004   -0.00002    0.18979
  1 Au    0.00000    0.00010    0.18983
  2 Au    0.00004   -0.00002    0.18979
  3 Au    0.00008   -0.00005    0.18983
  4 Au   -0.00008   -0.00005    0.18983
  5 Au    0.00000   -0.00013    0.18975
  6 Au    0.00000    0.00004    0.18979
  7 Au   -0.00012    0.00007    0.18975
  8 Au    0.00012    0.00007    0.18975
  9 Au    0.00000   -0.00009   -0.00005
 10 Au    0.00010    0.00006    0.00004
 11 Au   -0.00010    0.00006    0.00004
 12 Au    0.00018   -0.00011    0.00001
 13 Au    0.00000   -0.00012    0.00004
 14 Au   -0.00018   -0.00011    0.00001
 15 Au    0.00008    0.00005   -0.00005
 16 Au   -0.00008    0.00005   -0.00005
 17 Au    0.00000    0.00021    0.00001
 18 Au    0.00000    0.00000   -0.18981
 19 Au    0.00004    0.00016   -0.18978
 20 Au   -0.00004    0.00016   -0.18978
 21 Au    0.00016   -0.00005   -0.18978
 22 Au   -0.00000    0.00000   -0.18983
 23 Au   -0.00016   -0.00005   -0.18978
 24 Au    0.00012   -0.00011   -0.18978
 25 Au   -0.00012   -0.00011   -0.18978
 26 Au   -0.00000    0.00000   -0.18974

System changes: positions 

Initializing position-dependent things.

Density initialized from wave functions
                                              
                                              
                                              
                                              
                                              
                  Au     Au     Au            
            Au     AAu    AAu    Au           
                                              
       Au     Au     AAu    Au                
                      Au     Au     Au        
        Au     Au      Au                     
                 Au     Au     Au             
                                              
           Au      Au     Au                  
                                              
                                              
                                              
                                              

Positions:
   0 Au     1.476783    0.852621    6.153527    ( 0.0000,  0.0000,  0.0000)
   1 Au     4.430378    0.852651    6.153536    ( 0.0000,  0.0000,  0.0000)
   2 Au     7.383972    0.852621    6.153527    ( 0.0000,  0.0000,  0.0000)
   3 Au     2.953606    3.410494    6.153536    ( 0.0000,  0.0000,  0.0000)
   4 Au     5.907149    3.410494    6.153536    ( 0.0000,  0.0000,  0.0000)
   5 Au     8.860755    3.410475    6.153518    ( 0.0000,  0.0000,  0.0000)
   6 Au     4.430378    5.968396    6.153527    ( 0.0000,  0.0000,  0.0000)
   7 Au     7.383935    5.968402    6.153518    ( 0.0000,  0.0000,  0.0000)
   8 Au    10.337575    5.968402    6.153518    ( 0.0000,  0.0000,  0.0000)
   9 Au    -0.000000    1.705230    8.411581    ( 0.0000,  0.0000,  0.0000)
  10 Au     2.953609    1.705267    8.411602    ( 0.0000,  0.0000,  0.0000)
  11 Au     5.907146    1.705267    8.411602    ( 0.0000,  0.0000,  0.0000)
  12 Au     1.476837    4.263107    8.411594    ( 0.0000,  0.0000,  0.0000)
  13 Au     4.430378    4.263105    8.411602    ( 0.0000,  0.0000,  0.0000)
  14 Au     7.383918    4.263107    8.411594    ( 0.0000,  0.0000,  0.0000)
  15 Au     2.953605    6.821024    8.411581    ( 0.0000,  0.0000,  0.0000)
  16 Au     5.907150    6.821024    8.411581    ( 0.0000,  0.0000,  0.0000)
  17 Au     8.860755    6.821064    8.411594    ( 0.0000,  0.0000,  0.0000)
  18 Au     0.000000    0.000000   10.669655    ( 0.0000,  0.0000,  0.0000)
  19 Au     2.953593    0.000039   10.669658    ( 0.0000,  0.0000,  0.0000)
  20 Au     5.907162    0.000039   10.669658    ( 0.0000,  0.0000,  0.0000)
  21 Au     1.476831    2.557867   10.669658    ( 0.0000,  0.0000,  0.0000)
  22 Au     4.430378    2.557880   10.669646    ( 0.0000,  0.0000,  0.0000)
  23 Au     7.383925    2.557867   10.669658    ( 0.0000,  0.0000,  0.0000)
  24 Au     2.953615    5.115733   10.669658    ( 0.0000,  0.0000,  0.0000)
  25 Au     5.907140    5.115733   10.669658    ( 0.0000,  0.0000,  0.0000)
  26 Au     8.860755    5.115759   10.669669    ( 0.0000,  0.0000,  0.0000)

Unit cell:
           periodic     x           y           z      points  spacing
  1. axis:    yes    8.860755    0.000000    0.000000    45     0.1705
  2. axis:    yes    4.430378    7.673639    0.000000    45     0.1705
  3. axis:    no     0.000000    0.000000   16.823184    84     0.2003

  Lengths:   8.860755   8.860755  16.823184
  Angles:   90.000000  90.000000  60.000000

Effective grid spacing dv^(1/3) = 0.1888

     iter     time        total  log10-change:
                         energy  eigst   dens
iter:   1 14:40:27  -109.058898  -1.20
iter:   2 14:40:33  -107.563722  -2.80  -1.67
iter:   3 14:40:38  -106.534419  -1.79  -1.84
iter:   4 14:40:43  -106.532343  -3.21  -2.57
iter:   5 14:40:48  -106.526235c -3.60  -2.57
iter:   6 14:40:53  -106.529415c -3.60  -2.65
iter:   7 14:40:59  -106.515772c -3.47  -3.03
iter:   8 14:41:04  -106.514545c -4.70  -3.20
iter:   9 14:41:09  -106.514142c -5.42  -3.61
iter:  10 14:41:14  -106.514029c -5.64  -3.78
iter:  11 14:41:19  -106.514027c -6.59  -4.06c
iter:  12 14:41:24  -106.514044c -6.87  -4.09c
iter:  13 14:41:30  -106.513922c -6.29  -3.97
iter:  14 14:41:35  -106.513901c -7.26  -4.74c
iter:  15 14:41:40  -106.513891c -7.56c -4.78c

Converged after 15 iterations.

Dipole moment: (-0.211124, -0.121893, 0.000000) |e|*Ang

Energy contributions relative to reference atoms: (reference = -13940466.469256)

Kinetic:       -296.152430
Potential:     +244.846024
External:        +0.000000
XC:             -58.023869
Entropy (-ST):   -0.283518
Local:           +2.958143
--------------------------
Free energy:   -106.655650
Extrapolated:  -106.513891

Showing only first 2 kpts
 Kpt  Band  Eigenvalues  Occupancy
  0   146     -0.66441    1.99998
  0   147     -0.66231    1.99998
  0   148     -0.03476    1.99104
  0   149     -0.03474    1.99104

  1   146     -0.84007    2.00000
  1   147     -0.65554    1.99998
  1   148     -0.65553    1.99998
  1   149     -0.49456    1.99991


Fermi level: 0.50564

No gap

Forces in eV/Ang:
  0 Au    0.00002    0.00001   -0.09101
  1 Au   -0.00000    0.00003   -0.09111
  2 Au   -0.00002    0.00001   -0.09101
  3 Au    0.00002   -0.00001   -0.09111
  4 Au   -0.00002   -0.00001   -0.09111
  5 Au   -0.00000   -0.00001   -0.09083
  6 Au   -0.00000   -0.00003   -0.09101
  7 Au   -0.00001    0.00001   -0.09083
  8 Au    0.00001    0.00001   -0.09083
  9 Au    0.00000    0.00001    0.00018
 10 Au   -0.00019   -0.00011   -0.00012
 11 Au    0.00019   -0.00011   -0.00012
 12 Au   -0.00018    0.00010   -0.00006
 13 Au    0.00000    0.00022   -0.00012
 14 Au    0.00018    0.00010   -0.00006
 15 Au   -0.00001   -0.00000    0.00018
 16 Au    0.00001   -0.00000    0.00018
 17 Au    0.00000   -0.00021   -0.00006
 18 Au    0.00000    0.00000    0.09094
 19 Au   -0.00014   -0.00001    0.09098
 20 Au    0.00014   -0.00001    0.09098
 21 Au   -0.00008   -0.00012    0.09098
 22 Au   -0.00000    0.00000    0.09134
 23 Au    0.00008   -0.00012    0.09098
 24 Au    0.00006    0.00013    0.09098
 25 Au   -0.00006    0.00013    0.09098
 26 Au   -0.00000    0.00000    0.09069

System changes: positions 

Initializing position-dependent things.

Density initialized from wave functions
                                              
                                              
                                              
                                              
                                              
                  Au     Au     Au            
                                              
            Au     AAu    AAu    Au           
       Au     Au     AAu    Au                
                                              
        Au     Au     AAu    Au     Au        
                                              
                 Au     Au     Au             
                                              
           Au      Au     Au                  
                                              
                                              
                                              
                                              

Positions:
   0 Au     1.476787    0.852623    6.136225    ( 0.0000,  0.0000,  0.0000)
   1 Au     4.430378    0.852656    6.136217    ( 0.0000,  0.0000,  0.0000)
   2 Au     7.383968    0.852623    6.136225    ( 0.0000,  0.0000,  0.0000)
   3 Au     2.953611    3.410491    6.136217    ( 0.0000,  0.0000,  0.0000)
   4 Au     5.907144    3.410491    6.136217    ( 0.0000,  0.0000,  0.0000)
   5 Au     8.860755    3.410471    6.136245    ( 0.0000,  0.0000,  0.0000)
   6 Au     4.430378    5.968393    6.136225    ( 0.0000,  0.0000,  0.0000)
   7 Au     7.383932    5.968403    6.136245    ( 0.0000,  0.0000,  0.0000)
   8 Au    10.337578    5.968403    6.136245    ( 0.0000,  0.0000,  0.0000)
   9 Au    -0.000000    1.705230    8.411609    ( 0.0000,  0.0000,  0.0000)
  10 Au     2.953579    1.705250    8.411582    ( 0.0000,  0.0000,  0.0000)
  11 Au     5.907176    1.705250    8.411582    ( 0.0000,  0.0000,  0.0000)
  12 Au     1.476809    4.263123    8.411585    ( 0.0000,  0.0000,  0.0000)
  13 Au     4.430378    4.263140    8.411582    ( 0.0000,  0.0000,  0.0000)
  14 Au     7.383946    4.263123    8.411585    ( 0.0000,  0.0000,  0.0000)
  15 Au     2.953605    6.821024    8.411609    ( 0.0000,  0.0000,  0.0000)
  16 Au     5.907150    6.821024    8.411609    ( 0.0000,  0.0000,  0.0000)
  17 Au     8.860755    6.821032    8.411585    ( 0.0000,  0.0000,  0.0000)
  18 Au     0.000000    0.000000   10.686947    ( 0.0000,  0.0000,  0.0000)
  19 Au     2.953569    0.000039   10.686955    ( 0.0000,  0.0000,  0.0000)
  20 Au     5.907186    0.000039   10.686955    ( 0.0000,  0.0000,  0.0000)
  21 Au     1.476818    2.557847   10.686955    ( 0.0000,  0.0000,  0.0000)
  22 Au     4.430378    2.557880   10.687002    ( 0.0000,  0.0000,  0.0000)
  23 Au     7.383937    2.557847   10.686955    ( 0.0000,  0.0000,  0.0000)
  24 Au     2.953626    5.115753   10.686955    ( 0.0000,  0.0000,  0.0000)
  25 Au     5.907129    5.115753   10.686955    ( 0.0000,  0.0000,  0.0000)
  26 Au     8.860755    5.115759   10.686919    ( 0.0000,  0.0000,  0.0000)

Unit cell:
           periodic     x           y           z      points  spacing
  1. axis:    yes    8.860755    0.000000    0.000000    45     0.1705
  2. axis:    yes    4.430378    7.673639    0.000000    45     0.1705
  3. axis:    no     0.000000    0.000000   16.823184    84     0.2003

  Lengths:   8.860755   8.860755  16.823184
  Angles:   90.000000  90.000000  60.000000

Effective grid spacing dv^(1/3) = 0.1888

     iter     time        total  log10-change:
                         energy  eigst   dens
iter:   1 14:41:47  -106.770328  -2.23
iter:   2 14:41:52  -106.640704  -3.87  -2.19
iter:   3 14:41:58  -106.528879  -2.76  -2.34
iter:   4 14:42:03  -106.529197c -4.08  -3.09
iter:   5 14:42:08  -106.529356c -4.89  -3.07
iter:   6 14:42:13  -106.530189c -4.90  -3.06
iter:   7 14:42:18  -106.555316c -3.39  -3.01
iter:   8 14:42:24  -106.541294c -4.82  -2.65
iter:   9 14:42:29  -106.529882c -3.17  -2.75
iter:  10 14:42:34  -106.528308c -4.50  -3.40
iter:  11 14:42:39  -106.527912c -5.63  -3.30
iter:  12 14:42:44  -106.527174c -4.53  -3.38
iter:  13 14:42:49  -106.527155c -5.86  -3.87
iter:  14 14:42:55  -106.527163c -6.26  -4.08c
iter:  15 14:43:00  -106.527150c -6.07  -4.09c
iter:  16 14:43:05  -106.527132c -6.82  -4.58c
iter:  17 14:43:10  -106.527171c -7.08  -4.50c
iter:  18 14:43:15  -106.527193c -6.42  -4.51c
iter:  19 14:43:21  -106.527190c -7.45c -4.13c

Converged after 19 iterations.

Dipole moment: (-0.204435, -0.118031, -0.000001) |e|*Ang

Energy contributions relative to reference atoms: (reference = -13940466.469256)

Kinetic:       -308.953762
Potential:     +255.754063
External:        +0.000000
XC:             -56.111962
Entropy (-ST):   -0.285607
Local:           +2.927273
--------------------------
Free energy:   -106.669994
Extrapolated:  -106.527190

Showing only first 2 kpts
 Kpt  Band  Eigenvalues  Occupancy
  0   146     -0.67908    1.99998
  0   147     -0.67706    1.99998
  0   148     -0.04394    1.99102
  0   149     -0.04391    1.99102

  1   146     -0.85315    2.00000
  1   147     -0.67063    1.99998
  1   148     -0.67062    1.99998
  1   149     -0.50832    1.99991


Fermi level: 0.49617

No gap

Forces in eV/Ang:
  0 Au   -0.00007   -0.00004   -0.01385
  1 Au    0.00000    0.00019   -0.01379
  2 Au    0.00007   -0.00004   -0.01385
  3 Au    0.00017   -0.00010   -0.01379
  4 Au   -0.00017   -0.00010   -0.01379
  5 Au    0.00000   -0.00025   -0.01388
  6 Au    0.00000    0.00008   -0.01385
  7 Au   -0.00021    0.00012   -0.01388
  8 Au    0.00021    0.00012   -0.01388
  9 Au   -0.00000   -0.00003   -0.00023
 10 Au    0.00036    0.00021    0.00016
 11 Au   -0.00036    0.00021    0.00016
 12 Au    0.00037   -0.00021    0.00008
 13 Au    0.00000   -0.00041    0.00016
 14 Au   -0.00037   -0.00021    0.00008
 15 Au    0.00003    0.00002   -0.00023
 16 Au   -0.00003    0.00002   -0.00023
 17 Au    0.00000    0.00043    0.00008
 18 Au    0.00000    0.00000    0.01404
 19 Au    0.00024    0.00033    0.01383
 20 Au   -0.00024    0.00033    0.01383
 21 Au    0.00041    0.00005    0.01383
 22 Au    0.00000    0.00000    0.01353
 23 Au   -0.00041    0.00005    0.01383
 24 Au    0.00016   -0.00038    0.01383
 25 Au   -0.00016   -0.00038    0.01383
 26 Au    0.00000    0.00000    0.01395

System changes: positions 

Initializing position-dependent things.

Density initialized from wave functions
                                              
                                              
                                              
                                              
                                              
                  Au     Au     Au            
                                              
            Au     AAu    AAu    Au           
       Au     Au     AAu    Au                
                                              
        Au     Au     AAu    Au     Au        
                                              
                 Au     Au     Au             
                                              
           Au      Au     Au                  
                                              
                                              
                                              
                                              

Positions:
   0 Au     1.476769    0.852613    6.133890    ( 0.0000,  0.0000,  0.0000)
   1 Au     4.430378    0.852705    6.133897    ( 0.0000,  0.0000,  0.0000)
   2 Au     7.383987    0.852613    6.133890    ( 0.0000,  0.0000,  0.0000)
   3 Au     2.953653    3.410467    6.133897    ( 0.0000,  0.0000,  0.0000)
   4 Au     5.907102    3.410467    6.133897    ( 0.0000,  0.0000,  0.0000)
   5 Au     8.860755    3.410409    6.133902    ( 0.0000,  0.0000,  0.0000)
   6 Au     4.430378    5.968414    6.133890    ( 0.0000,  0.0000,  0.0000)
   7 Au     7.383878    5.968435    6.133902    ( 0.0000,  0.0000,  0.0000)
   8 Au    10.337632    5.968435    6.133902    ( 0.0000,  0.0000,  0.0000)
   9 Au    -0.000000    1.705220    8.411553    ( 0.0000,  0.0000,  0.0000)
  10 Au     2.953668    1.705301    8.411621    ( 0.0000,  0.0000,  0.0000)
  11 Au     5.907087    1.705301    8.411621    ( 0.0000,  0.0000,  0.0000)
  12 Au     1.476903    4.263069    8.411604    ( 0.0000,  0.0000,  0.0000)
  13 Au     4.430378    4.263036    8.411621    ( 0.0000,  0.0000,  0.0000)
  14 Au     7.383853    4.263069    8.411604    ( 0.0000,  0.0000,  0.0000)
  15 Au     2.953613    6.821029    8.411553    ( 0.0000,  0.0000,  0.0000)
  16 Au     5.907142    6.821029    8.411553    ( 0.0000,  0.0000,  0.0000)
  17 Au     8.860755    6.821139    8.411604    ( 0.0000,  0.0000,  0.0000)
  18 Au     0.000000    0.000000   10.689328    ( 0.0000,  0.0000,  0.0000)
  19 Au     2.953630    0.000122   10.689287    ( 0.0000,  0.0000,  0.0000)
  20 Au     5.907125    0.000122   10.689287    ( 0.0000,  0.0000,  0.0000)
  21 Au     1.476920    2.557857   10.689287    ( 0.0000,  0.0000,  0.0000)
  22 Au     4.430378    2.557880   10.689261    ( 0.0000,  0.0000,  0.0000)
  23 Au     7.383835    2.557857   10.689287    ( 0.0000,  0.0000,  0.0000)
  24 Au     2.953668    5.115660   10.689287    ( 0.0000,  0.0000,  0.0000)
  25 Au     5.907087    5.115660   10.689287    ( 0.0000,  0.0000,  0.0000)
  26 Au     8.860755    5.115759   10.689279    ( 0.0000,  0.0000,  0.0000)

Unit cell:
           periodic     x           y           z      points  spacing
  1. axis:    yes    8.860755    0.000000    0.000000    45     0.1705
  2. axis:    yes    4.430378    7.673639    0.000000    45     0.1705
  3. axis:    no     0.000000    0.000000   16.823184    84     0.2003

  Lengths:   8.860755   8.860755  16.823184
  Angles:   90.000000  90.000000  60.000000

Effective grid spacing dv^(1/3) = 0.1888

     iter     time        total  log10-change:
                         energy  eigst   dens
iter:   1 14:43:28  -106.530863  -4.12
iter:   2 14:43:33  -106.528944  -5.63  -3.15
iter:   3 14:43:38  -106.526829c -4.77  -3.30
iter:   4 14:43:43  -106.526828c -5.98  -3.92
iter:   5 14:43:48  -106.526827c -6.78  -3.90
iter:   6 14:43:54  -106.526866c -6.32  -3.97
iter:   7 14:43:59  -106.526852c -6.47  -4.09c
iter:   8 14:44:04  -106.526851c -7.31  -4.43c
iter:   9 14:44:09  -106.526833c -7.78c -4.54c

Converged after 9 iterations.

Dipole moment: (-0.212935, -0.122938, -0.000005) |e|*Ang

Energy contributions relative to reference atoms: (reference = -13940466.469256)

Kinetic:       -312.372321
Potential:     +258.806154
External:        +0.000000
XC:             -55.741593
Entropy (-ST):   -0.285942
Local:           +2.923897
--------------------------
Free energy:   -106.669805
Extrapolated:  -106.526833

Showing only first 2 kpts
 Kpt  Band  Eigenvalues  Occupancy
  0   146     -0.68154    1.99998
  0   147     -0.68013    1.99998
  0   148     -0.04557    1.99101
  0   149     -0.04552    1.99100

  1   146     -0.85600    2.00000
  1   147     -0.67307    1.99998
  1   148     -0.67306    1.99998
  1   149     -0.51049    1.99991


Fermi level: 0.49440

No gap

Forces in eV/Ang:
  0 Au    0.00023    0.00014    0.01714
  1 Au    0.00000   -0.00057    0.01692
  2 Au   -0.00023    0.00014    0.01714
  3 Au   -0.00050    0.00029    0.01692
  4 Au    0.00050    0.00029    0.01692
  5 Au    0.00000    0.00079    0.01760
  6 Au    0.00000   -0.00027    0.01714
  7 Au    0.00068   -0.00040    0.01760
  8 Au   -0.00068   -0.00040    0.01760
  9 Au   -0.00000    0.00018    0.00104
 10 Au   -0.00135   -0.00078   -0.00072
 11 Au    0.00135   -0.00078   -0.00072
 12 Au   -0.00145    0.00084   -0.00032
 13 Au   -0.00000    0.00156   -0.00072
 14 Au    0.00145    0.00084   -0.00032
 15 Au   -0.00015   -0.00009    0.00104
 16 Au    0.00015   -0.00009    0.00104
 17 Au    0.00000   -0.00168   -0.00032
 18 Au   -0.00000    0.00000   -0.01787
 19 Au   -0.00058   -0.00094   -0.01719
 20 Au    0.00058   -0.00094   -0.01719
 21 Au   -0.00110   -0.00004   -0.01719
 22 Au    0.00000    0.00000   -0.01606
 23 Au    0.00110   -0.00004   -0.01719
 24 Au   -0.00052    0.00097   -0.01719
 25 Au    0.00052    0.00097   -0.01719
 26 Au   -0.00000    0.00000   -0.01797

System changes: positions 

Initializing position-dependent things.

Density initialized from wave functions
                                              
                                              
                                              
                                              
                                              
                  Au     Au     Au            
                                              
            Au     AAu    AAu    Au           
       Au     Au     AAu    Au                
                                              
        Au     Au     AAu    Au     Au        
                                              
                 Au     Au     Au             
                                              
           Au      Au     Au                  
                                              
                                              
                                              
                                              

Positions:
   0 Au     1.476784    0.852621    6.135257    ( 0.0000,  0.0000,  0.0000)
   1 Au     4.430378    0.852665    6.135252    ( 0.0000,  0.0000,  0.0000)
   2 Au     7.383971    0.852621    6.135257    ( 0.0000,  0.0000,  0.0000)
   3 Au     2.953619    3.410487    6.135252    ( 0.0000,  0.0000,  0.0000)
   4 Au     5.907136    3.410487    6.135252    ( 0.0000,  0.0000,  0.0000)
   5 Au     8.860755    3.410462    6.135289    ( 0.0000,  0.0000,  0.0000)
   6 Au     4.430378    5.968396    6.135257    ( 0.0000,  0.0000,  0.0000)
   7 Au     7.383924    5.968408    6.135289    ( 0.0000,  0.0000,  0.0000)
   8 Au    10.337586    5.968408    6.135289    ( 0.0000,  0.0000,  0.0000)
   9 Au    -0.000000    1.705232    8.411611    ( 0.0000,  0.0000,  0.0000)
  10 Au     2.953587    1.705254    8.411580    ( 0.0000,  0.0000,  0.0000)
  11 Au     5.907168    1.705254    8.411580    ( 0.0000,  0.0000,  0.0000)
  12 Au     1.476814    4.263120    8.411585    ( 0.0000,  0.0000,  0.0000)
  13 Au     4.430378    4.263130    8.411580    ( 0.0000,  0.0000,  0.0000)
  14 Au     7.383941    4.263120    8.411585    ( 0.0000,  0.0000,  0.0000)
  15 Au     2.953603    6.821023    8.411611    ( 0.0000,  0.0000,  0.0000)
  16 Au     5.907152    6.821023    8.411611    ( 0.0000,  0.0000,  0.0000)
  17 Au     8.860755    6.821038    8.411585    ( 0.0000,  0.0000,  0.0000)
  18 Au     0.000000    0.000000   10.687918    ( 0.0000,  0.0000,  0.0000)
  19 Au     2.953591    0.000057   10.687919    ( 0.0000,  0.0000,  0.0000)
  20 Au     5.907164    0.000057   10.687919    ( 0.0000,  0.0000,  0.0000)
  21 Au     1.476845    2.557857   10.687919    ( 0.0000,  0.0000,  0.0000)
  22 Au     4.430378    2.557880   10.687955    ( 0.0000,  0.0000,  0.0000)
  23 Au     7.383910    2.557857   10.687919    ( 0.0000,  0.0000,  0.0000)
  24 Au     2.953631    5.115726   10.687919    ( 0.0000,  0.0000,  0.0000)
  25 Au     5.907124    5.115726   10.687919    ( 0.0000,  0.0000,  0.0000)
  26 Au     8.860755    5.115759   10.687873    ( 0.0000,  0.0000,  0.0000)

Unit cell:
           periodic     x           y           z      points  spacing
  1. axis:    yes    8.860755    0.000000    0.000000    45     0.1705
  2. axis:    yes    4.430378    7.673639    0.000000    45     0.1705
  3. axis:    no     0.000000    0.000000   16.823184    84     0.2003

  Lengths:   8.860755   8.860755  16.823184
  Angles:   90.000000  90.000000  60.000000

Effective grid spacing dv^(1/3) = 0.1888

     iter     time        total  log10-change:
                         energy  eigst   dens
iter:   1 14:44:16  -106.527204  -4.71
iter:   2 14:44:22  -106.527046  -6.24  -3.44
iter:   3 14:44:27  -106.527195c -5.32  -3.59
iter:   4 14:44:32  -106.527190c -6.61  -4.17c
iter:   5 14:44:37  -106.527207c -7.10  -4.16c
iter:   6 14:44:42  -106.527351c -5.87  -4.15c
iter:   7 14:44:47  -106.527349c -6.89  -3.85
iter:   8 14:44:53  -106.527347c -7.19  -3.84
iter:   9 14:44:58  -106.527172c -6.28  -3.81
iter:  10 14:45:03  -106.527096c -6.34  -4.01c
iter:  11 14:45:08  -106.527092c -7.31  -4.22c
iter:  12 14:45:13  -106.527068c -6.22  -4.18c
iter:  13 14:45:19  -106.527111c -6.83  -4.54c
iter:  14 14:45:24  -106.527104c -7.72c -4.55c

Converged after 14 iterations.

Dipole moment: (-0.207564, -0.119837, -0.000033) |e|*Ang

Energy contributions relative to reference atoms: (reference = -13940466.469256)

Kinetic:       -311.194060
Potential:     +257.792295
External:        +0.000000
XC:             -55.914131
Entropy (-ST):   -0.285716
Local:           +2.931650
--------------------------
Free energy:   -106.669962
Extrapolated:  -106.527104

Showing only first 2 kpts
 Kpt  Band  Eigenvalues  Occupancy
  0   146     -0.67998    1.99998
  0   147     -0.67835    1.99998
  0   148     -0.04448    1.99101
  0   149     -0.04431    1.99100

  1   146     -0.85435    2.00000
  1   147     -0.67149    1.99998
  1   148     -0.67149    1.99998
  1   149     -0.50904    1.99991


Fermi level: 0.49557

No gap

Forces in eV/Ang:
  0 Au   -0.00025   -0.00015    0.00073
  1 Au    0.00000   -0.00064    0.00099
  2 Au    0.00025   -0.00015    0.00073
  3 Au   -0.00055    0.00032    0.00099
  4 Au    0.00055    0.00032    0.00099
  5 Au   -0.00000    0.00052    0.00122
  6 Au   -0.00000    0.00029    0.00073
  7 Au    0.00045   -0.00026    0.00122
  8 Au   -0.00045   -0.00026    0.00122
  9 Au    0.00000    0.00011    0.00001
 10 Au    0.00019    0.00011    0.00000
 11 Au   -0.00019    0.00011    0.00000
 12 Au    0.00003   -0.00001    0.00009
 13 Au    0.00000   -0.00022    0.00000
 14 Au   -0.00003   -0.00001    0.00009
 15 Au   -0.00009   -0.00005    0.00001
 16 Au    0.00009   -0.00005    0.00001
 17 Au   -0.00000    0.00003    0.00009
 18 Au   -0.00000    0.00000   -0.00123
 19 Au   -0.00012   -0.00102   -0.00103
 20 Au    0.00012   -0.00102   -0.00103
 21 Au   -0.00094    0.00041   -0.00103
 22 Au    0.00000    0.00000   -0.00102
 23 Au    0.00094    0.00041   -0.00103
 24 Au   -0.00082    0.00061   -0.00103
 25 Au    0.00082    0.00061   -0.00103
 26 Au   -0.00000    0.00000   -0.00111

System changes: positions 

Initializing position-dependent things.

Density initialized from wave functions
                                              
                                              
                                              
                                              
                                              
                  Au     Au     Au            
                                              
            Au     AAu    AAu    Au           
       Au     Au     AAu    Au                
                                              
        Au     Au     AAu    Au     Au        
                                              
                 Au     Au     Au             
                                              
           Au      Au     Au                  
                                              
                                              
                                              
                                              

Positions:
   0 Au     1.476748    0.852601    6.135260    ( 0.0000,  0.0000,  0.0000)
   1 Au     4.430378    0.852584    6.135294    ( 0.0000,  0.0000,  0.0000)
   2 Au     7.384007    0.852601    6.135260    ( 0.0000,  0.0000,  0.0000)
   3 Au     2.953548    3.410528    6.135294    ( 0.0000,  0.0000,  0.0000)
   4 Au     5.907207    3.410528    6.135294    ( 0.0000,  0.0000,  0.0000)
   5 Au     8.860755    3.410530    6.135366    ( 0.0000,  0.0000,  0.0000)
   6 Au     4.430378    5.968437    6.135260    ( 0.0000,  0.0000,  0.0000)
   7 Au     7.383983    5.968374    6.135366    ( 0.0000,  0.0000,  0.0000)
   8 Au    10.337527    5.968374    6.135366    ( 0.0000,  0.0000,  0.0000)
   9 Au    -0.000000    1.705252    8.411616    ( 0.0000,  0.0000,  0.0000)
  10 Au     2.953617    1.705271    8.411578    ( 0.0000,  0.0000,  0.0000)
  11 Au     5.907138    1.705271    8.411578    ( 0.0000,  0.0000,  0.0000)
  12 Au     1.476817    4.263119    8.411597    ( 0.0000,  0.0000,  0.0000)
  13 Au     4.430378    4.263096    8.411578    ( 0.0000,  0.0000,  0.0000)
  14 Au     7.383938    4.263119    8.411597    ( 0.0000,  0.0000,  0.0000)
  15 Au     2.953586    6.821013    8.411616    ( 0.0000,  0.0000,  0.0000)
  16 Au     5.907169    6.821013    8.411616    ( 0.0000,  0.0000,  0.0000)
  17 Au     8.860755    6.821041    8.411597    ( 0.0000,  0.0000,  0.0000)
  18 Au     0.000000    0.000000   10.687851    ( 0.0000,  0.0000,  0.0000)
  19 Au     2.953599   -0.000068   10.687873    ( 0.0000,  0.0000,  0.0000)
  20 Au     5.907156   -0.000068   10.687873    ( 0.0000,  0.0000,  0.0000)
  21 Au     1.476741    2.557926   10.687873    ( 0.0000,  0.0000,  0.0000)
  22 Au     4.430378    2.557880   10.687894    ( 0.0000,  0.0000,  0.0000)
  23 Au     7.384014    2.557926   10.687873    ( 0.0000,  0.0000,  0.0000)
  24 Au     2.953519    5.115781   10.687873    ( 0.0000,  0.0000,  0.0000)
  25 Au     5.907236    5.115781   10.687873    ( 0.0000,  0.0000,  0.0000)
  26 Au     8.860755    5.115759   10.687812    ( 0.0000,  0.0000,  0.0000)

Unit cell:
           periodic     x           y           z      points  spacing
  1. axis:    yes    8.860755    0.000000    0.000000    45     0.1705
  2. axis:    yes    4.430378    7.673639    0.000000    45     0.1705
  3. axis:    no     0.000000    0.000000   16.823184    84     0.2003

  Lengths:   8.860755   8.860755  16.823184
  Angles:   90.000000  90.000000  60.000000

Effective grid spacing dv^(1/3) = 0.1888

     iter     time        total  log10-change:
                         energy  eigst   dens
iter:   1 14:45:31  -106.527123  -6.74
iter:   2 14:45:36  -106.527123  -8.11c -4.71c
iter:   3 14:45:41  -106.527124c -7.64c -4.77c

Converged after 3 iterations.

Dipole moment: (-0.192320, -0.111036, -0.000052) |e|*Ang

Energy contributions relative to reference atoms: (reference = -13940466.469256)

Kinetic:       -311.803732
Potential:     +258.363278
External:        +0.000000
XC:             -55.870278
Entropy (-ST):   -0.285679
Local:           +2.926447
--------------------------
Free energy:   -106.669964
Extrapolated:  -106.527124

Showing only first 2 kpts
 Kpt  Band  Eigenvalues  Occupancy
  0   146     -0.68061    1.99998
  0   147     -0.67886    1.99998
  0   148     -0.04497    1.99100
  0   149     -0.04496    1.99100

  1   146     -0.85484    2.00000
  1   147     -0.67210    1.99998
  1   148     -0.67209    1.99998
  1   149     -0.50961    1.99991


Fermi level: 0.49496

No gap

Forces in eV/Ang:
  0 Au   -0.00002   -0.00001    0.00356
  1 Au   -0.00000   -0.00000    0.00318
  2 Au    0.00002   -0.00001    0.00356
  3 Au   -0.00000    0.00000    0.00318
  4 Au    0.00000    0.00000    0.00318
  5 Au   -0.00000   -0.00020    0.00300
  6 Au    0.00000    0.00003    0.00356
  7 Au   -0.00017    0.00010    0.00300
  8 Au    0.00017    0.00010    0.00300
  9 Au    0.00000   -0.00001    0.00005
 10 Au   -0.00052   -0.00030    0.00014
 11 Au    0.00052   -0.00030    0.00014
 12 Au   -0.00043    0.00025    0.00019
 13 Au   -0.00000    0.00060    0.00014
 14 Au    0.00043    0.00025    0.00019
 15 Au    0.00000    0.00000    0.00005
 16 Au   -0.00000    0.00000    0.00005
 17 Au   -0.00000   -0.00050    0.00019
 18 Au   -0.00000    0.00000   -0.00273
 19 Au   -0.00015    0.00011   -0.00308
 20 Au    0.00015    0.00011   -0.00308
 21 Au    0.00002   -0.00019   -0.00308
 22 Au    0.00000    0.00000   -0.00306
 23 Au   -0.00002   -0.00019   -0.00308
 24 Au    0.00017    0.00007   -0.00308
 25 Au   -0.00017    0.00007   -0.00308
 26 Au   -0.00000    0.00000   -0.00295

System changes: positions 

Initializing position-dependent things.

Density initialized from wave functions
                                              
                                              
                                              
                                              
                                              
                  Au     Au     Au            
                                              
            Au     AAu    AAu    Au           
       Au     Au     AAu    Au                
                                              
        Au     Au     AAu    Au     Au        
                                              
                 Au     Au     Au             
                                              
           Au      Au     Au                  
                                              
                                              
                                              
                                              

Positions:
   0 Au     1.476743    0.852598    6.135426    ( 0.0000,  0.0000,  0.0000)
   1 Au     4.430378    0.852594    6.135430    ( 0.0000,  0.0000,  0.0000)
   2 Au     7.384012    0.852598    6.135426    ( 0.0000,  0.0000,  0.0000)
   3 Au     2.953557    3.410523    6.135430    ( 0.0000,  0.0000,  0.0000)
   4 Au     5.907198    3.410523    6.135430    ( 0.0000,  0.0000,  0.0000)
   5 Au     8.860755    3.410498    6.135473    ( 0.0000,  0.0000,  0.0000)
   6 Au     4.430378    5.968443    6.135426    ( 0.0000,  0.0000,  0.0000)
   7 Au     7.383956    5.968390    6.135473    ( 0.0000,  0.0000,  0.0000)
   8 Au    10.337554    5.968390    6.135473    ( 0.0000,  0.0000,  0.0000)
   9 Au    -0.000000    1.705245    8.411600    ( 0.0000,  0.0000,  0.0000)
  10 Au     2.953596    1.705259    8.411604    ( 0.0000,  0.0000,  0.0000)
  11 Au     5.907160    1.705259    8.411604    ( 0.0000,  0.0000,  0.0000)
  12 Au     1.476808    4.263124    8.411619    ( 0.0000,  0.0000,  0.0000)
  13 Au     4.430378    4.263121    8.411604    ( 0.0000,  0.0000,  0.0000)
  14 Au     7.383947    4.263124    8.411619    ( 0.0000,  0.0000,  0.0000)
  15 Au     2.953592    6.821016    8.411600    ( 0.0000,  0.0000,  0.0000)
  16 Au     5.907163    6.821016    8.411600    ( 0.0000,  0.0000,  0.0000)
  17 Au     8.860755    6.821031    8.411619    ( 0.0000,  0.0000,  0.0000)
  18 Au     0.000000    0.000000   10.687767    ( 0.0000,  0.0000,  0.0000)
  19 Au     2.953586   -0.000044   10.687750    ( 0.0000,  0.0000,  0.0000)
  20 Au     5.907169   -0.000044   10.687750    ( 0.0000,  0.0000,  0.0000)
  21 Au     1.476755    2.557903   10.687750    ( 0.0000,  0.0000,  0.0000)
  22 Au     4.430378    2.557880   10.687760    ( 0.0000,  0.0000,  0.0000)
  23 Au     7.384000    2.557903   10.687750    ( 0.0000,  0.0000,  0.0000)
  24 Au     2.953546    5.115780   10.687750    ( 0.0000,  0.0000,  0.0000)
  25 Au     5.907209    5.115780   10.687750    ( 0.0000,  0.0000,  0.0000)
  26 Au     8.860755    5.115759   10.687715    ( 0.0000,  0.0000,  0.0000)

Unit cell:
           periodic     x           y           z      points  spacing
  1. axis:    yes    8.860755    0.000000    0.000000    45     0.1705
  2. axis:    yes    4.430378    7.673639    0.000000    45     0.1705
  3. axis:    no     0.000000    0.000000   16.823184    84     0.2003

  Lengths:   8.860755   8.860755  16.823184
  Angles:   90.000000  90.000000  60.000000

Effective grid spacing dv^(1/3) = 0.1888

     iter     time        total  log10-change:
                         energy  eigst   dens
iter:   1 14:45:48  -106.527058  -6.39
iter:   2 14:45:54  -106.527078  -7.75c -4.34c
iter:   3 14:45:59  -106.527123c -7.21  -4.49c
iter:   4 14:46:04  -106.527126c -8.31c -4.97c

Converged after 4 iterations.

Dipole moment: (-0.195088, -0.112634, -0.000021) |e|*Ang

Energy contributions relative to reference atoms: (reference = -13940466.469256)

Kinetic:       -311.195584
Potential:     +257.804291
External:        +0.000000
XC:             -55.921141
Entropy (-ST):   -0.285687
Local:           +2.928152
--------------------------
Free energy:   -106.669970
Extrapolated:  -106.527126

Showing only first 2 kpts
 Kpt  Band  Eigenvalues  Occupancy
  0   146     -0.68009    1.99998
  0   147     -0.67843    1.99998
  0   148     -0.04458    1.99101
  0   149     -0.04453    1.99100

  1   146     -0.85444    2.00000
  1   147     -0.67162    1.99998
  1   148     -0.67160    1.99998
  1   149     -0.50916    1.99991


Fermi level: 0.49541

No gap

Forces in eV/Ang:
  0 Au    0.00044    0.00025    0.00237
  1 Au   -0.00000    0.00058    0.00196
  2 Au   -0.00044    0.00025    0.00237
  3 Au    0.00050   -0.00029    0.00196
  4 Au   -0.00050   -0.00029    0.00196
  5 Au   -0.00000   -0.00033    0.00196
  6 Au   -0.00000   -0.00051    0.00237
  7 Au   -0.00029    0.00017    0.00196
  8 Au    0.00029    0.00017    0.00196
  9 Au    0.00000   -0.00045   -0.00037
 10 Au   -0.00021   -0.00012   -0.00008
 11 Au    0.00021   -0.00012   -0.00008
 12 Au    0.00052   -0.00030   -0.00043
 13 Au    0.00000    0.00025   -0.00008
 14 Au   -0.00052   -0.00030   -0.00043
 15 Au    0.00039    0.00022   -0.00037
 16 Au   -0.00039    0.00022   -0.00037
 17 Au    0.00000    0.00060   -0.00043
 18 Au    0.00000    0.00000   -0.00218
 19 Au   -0.00014    0.00108   -0.00191
 20 Au    0.00014    0.00108   -0.00191
 21 Au    0.00087   -0.00066   -0.00191
 22 Au   -0.00000    0.00000   -0.00187
 23 Au   -0.00087   -0.00066   -0.00191
 24 Au    0.00101   -0.00042   -0.00191
 25 Au   -0.00101   -0.00042   -0.00191
 26 Au   -0.00000    0.00000   -0.00168

System changes: positions 

Initializing position-dependent things.

Density initialized from wave functions
                                              
                                              
                                              
                                              
                                              
                  Au     Au     Au            
                                              
            Au     AAu    AAu    Au           
       Au     Au     AAu    Au                
                                              
        Au     Au     AAu    Au     Au        
                                              
                 Au     Au     Au             
                                              
           Au      Au     Au                  
                                              
                                              
                                              
                                              

Positions:
   0 Au     1.476766    0.852611    6.135505    ( 0.0000,  0.0000,  0.0000)
   1 Au     4.430378    0.852624    6.135495    ( 0.0000,  0.0000,  0.0000)
   2 Au     7.383989    0.852611    6.135505    ( 0.0000,  0.0000,  0.0000)
   3 Au     2.953582    3.410508    6.135495    ( 0.0000,  0.0000,  0.0000)
   4 Au     5.907173    3.410508    6.135495    ( 0.0000,  0.0000,  0.0000)
   5 Au     8.860755    3.410485    6.135543    ( 0.0000,  0.0000,  0.0000)
   6 Au     4.430378    5.968417    6.135505    ( 0.0000,  0.0000,  0.0000)
   7 Au     7.383944    5.968397    6.135543    ( 0.0000,  0.0000,  0.0000)
   8 Au    10.337566    5.968397    6.135543    ( 0.0000,  0.0000,  0.0000)
   9 Au    -0.000000    1.705221    8.411581    ( 0.0000,  0.0000,  0.0000)
  10 Au     2.953594    1.705258    8.411597    ( 0.0000,  0.0000,  0.0000)
  11 Au     5.907161    1.705258    8.411597    ( 0.0000,  0.0000,  0.0000)
  12 Au     1.476844    4.263103    8.411593    ( 0.0000,  0.0000,  0.0000)
  13 Au     4.430378    4.263122    8.411597    ( 0.0000,  0.0000,  0.0000)
  14 Au     7.383911    4.263103    8.411593    ( 0.0000,  0.0000,  0.0000)
  15 Au     2.953613    6.821028    8.411581    ( 0.0000,  0.0000,  0.0000)
  16 Au     5.907142    6.821028    8.411581    ( 0.0000,  0.0000,  0.0000)
  17 Au     8.860755    6.821072    8.411593    ( 0.0000,  0.0000,  0.0000)
  18 Au     0.000000    0.000000   10.687679    ( 0.0000,  0.0000,  0.0000)
  19 Au     2.953578    0.000007   10.687685    ( 0.0000,  0.0000,  0.0000)
  20 Au     5.907177    0.000007   10.687685    ( 0.0000,  0.0000,  0.0000)
  21 Au     1.476795    2.557870   10.687685    ( 0.0000,  0.0000,  0.0000)
  22 Au     4.430378    2.557880   10.687701    ( 0.0000,  0.0000,  0.0000)
  23 Au     7.383960    2.557870   10.687685    ( 0.0000,  0.0000,  0.0000)
  24 Au     2.953595    5.115762   10.687685    ( 0.0000,  0.0000,  0.0000)
  25 Au     5.907160    5.115762   10.687685    ( 0.0000,  0.0000,  0.0000)
  26 Au     8.860755    5.115759   10.687657    ( 0.0000,  0.0000,  0.0000)

Unit cell:
           periodic     x           y           z      points  spacing
  1. axis:    yes    8.860755    0.000000    0.000000    45     0.1705
  2. axis:    yes    4.430378    7.673639    0.000000    45     0.1705
  3. axis:    no     0.000000    0.000000   16.823184    84     0.2003

  Lengths:   8.860755   8.860755  16.823184
  Angles:   90.000000  90.000000  60.000000

Effective grid spacing dv^(1/3) = 0.1888

     iter     time        total  log10-change:
                         energy  eigst   dens
iter:   1 14:46:11  -106.527111  -6.99
iter:   2 14:46:16  -106.527120  -8.40c -4.73c
iter:   3 14:46:21  -106.527136c -7.76c -4.88c

Converged after 3 iterations.

Dipole moment: (-0.200170, -0.115568, -0.000126) |e|*Ang

Energy contributions relative to reference atoms: (reference = -13940466.469256)

Kinetic:       -311.565767
Potential:     +258.153247
External:        +0.000000
XC:             -55.898905
Entropy (-ST):   -0.285673
Local:           +2.927125
--------------------------
Free energy:   -106.669972
Extrapolated:  -106.527136

Showing only first 2 kpts
 Kpt  Band  Eigenvalues  Occupancy
  0   146     -0.68035    1.99998
  0   147     -0.67861    1.99998
  0   148     -0.04479    1.99100
  0   149     -0.04477    1.99100

  1   146     -0.85461    2.00000
  1   147     -0.67183    1.99998
  1   148     -0.67183    1.99998
  1   149     -0.50936    1.99991


Fermi level: 0.49516

No gap

Forces in eV/Ang:
  0 Au    0.00025    0.00014    0.00186
  1 Au   -0.00000   -0.00019    0.00232
  2 Au   -0.00025    0.00014    0.00186
  3 Au   -0.00017    0.00010    0.00232
  4 Au    0.00017    0.00010    0.00232
  5 Au    0.00000    0.00056    0.00195
  6 Au   -0.00000   -0.00029    0.00186
  7 Au    0.00049   -0.00028    0.00195
  8 Au   -0.00049   -0.00028    0.00195
  9 Au    0.00000    0.00035    0.00066
 10 Au    0.00010    0.00006   -0.00006
 11 Au   -0.00010    0.00006   -0.00006
 12 Au   -0.00046    0.00026   -0.00001
 13 Au    0.00000   -0.00012   -0.00006
 14 Au    0.00046    0.00026   -0.00001
 15 Au   -0.00031   -0.00018    0.00066
 16 Au    0.00031   -0.00018    0.00066
 17 Au    0.00000   -0.00053   -0.00001
 18 Au   -0.00000    0.00000   -0.00157
 19 Au    0.00002   -0.00041   -0.00166
 20 Au   -0.00002   -0.00041   -0.00166
 21 Au   -0.00035    0.00023   -0.00166
 22 Au    0.00000    0.00000   -0.00200
 23 Au    0.00035    0.00023   -0.00166
 24 Au   -0.00037    0.00019   -0.00166
 25 Au    0.00037    0.00019   -0.00166
 26 Au   -0.00000    0.00000   -0.00149

System changes: positions 

Initializing position-dependent things.

Density initialized from wave functions
                                              
                                              
                                              
                                              
                                              
                  Au     Au     Au            
                                              
            Au     AAu    AAu    Au           
       Au     Au     AAu    Au                
                                              
        Au     Au     AAu    Au     Au        
                                              
                 Au     Au     Au             
                                              
           Au      Au     Au                  
                                              
                                              
                                              
                                              

Positions:
   0 Au     1.476779    0.852619    6.135564    ( 0.0000,  0.0000,  0.0000)
   1 Au     4.430378    0.852617    6.135569    ( 0.0000,  0.0000,  0.0000)
   2 Au     7.383976    0.852619    6.135564    ( 0.0000,  0.0000,  0.0000)
   3 Au     2.953577    3.410511    6.135569    ( 0.0000,  0.0000,  0.0000)
   4 Au     5.907179    3.410511    6.135569    ( 0.0000,  0.0000,  0.0000)
   5 Au     8.860755    3.410508    6.135600    ( 0.0000,  0.0000,  0.0000)
   6 Au     4.430378    5.968402    6.135564    ( 0.0000,  0.0000,  0.0000)
   7 Au     7.383964    5.968385    6.135600    ( 0.0000,  0.0000,  0.0000)
   8 Au    10.337546    5.968385    6.135600    ( 0.0000,  0.0000,  0.0000)
   9 Au    -0.000000    1.705229    8.411598    ( 0.0000,  0.0000,  0.0000)
  10 Au     2.953602    1.705263    8.411599    ( 0.0000,  0.0000,  0.0000)
  11 Au     5.907153    1.705263    8.411599    ( 0.0000,  0.0000,  0.0000)
  12 Au     1.476840    4.263105    8.411589    ( 0.0000,  0.0000,  0.0000)
  13 Au     4.430378    4.263113    8.411599    ( 0.0000,  0.0000,  0.0000)
  14 Au     7.383915    4.263105    8.411589    ( 0.0000,  0.0000,  0.0000)
  15 Au     2.953606    6.821025    8.411598    ( 0.0000,  0.0000,  0.0000)
  16 Au     5.907149    6.821025    8.411598    ( 0.0000,  0.0000,  0.0000)
  17 Au     8.860755    6.821068    8.411589    ( 0.0000,  0.0000,  0.0000)
  18 Au     0.000000    0.000000   10.687643    ( 0.0000,  0.0000,  0.0000)
  19 Au     2.953577   -0.000003   10.687646    ( 0.0000,  0.0000,  0.0000)
  20 Au     5.907179   -0.000003   10.687646    ( 0.0000,  0.0000,  0.0000)
  21 Au     1.476786    2.557874   10.687646    ( 0.0000,  0.0000,  0.0000)
  22 Au     4.430378    2.557880   10.687639    ( 0.0000,  0.0000,  0.0000)
  23 Au     7.383969    2.557874   10.687646    ( 0.0000,  0.0000,  0.0000)
  24 Au     2.953587    5.115768   10.687646    ( 0.0000,  0.0000,  0.0000)
  25 Au     5.907168    5.115768   10.687646    ( 0.0000,  0.0000,  0.0000)
  26 Au     8.860755    5.115759   10.687636    ( 0.0000,  0.0000,  0.0000)

Unit cell:
           periodic     x           y           z      points  spacing
  1. axis:    yes    8.860755    0.000000    0.000000    45     0.1705
  2. axis:    yes    4.430378    7.673639    0.000000    45     0.1705
  3. axis:    no     0.000000    0.000000   16.823184    84     0.2003

  Lengths:   8.860755   8.860755  16.823184
  Angles:   90.000000  90.000000  60.000000

Effective grid spacing dv^(1/3) = 0.1888

     iter     time        total  log10-change:
                         energy  eigst   dens
iter:   1 14:46:29  -106.527140  -6.97
iter:   2 14:46:34  -106.527138  -8.23c -4.69c
iter:   3 14:46:39  -106.527139c -8.20c -4.90c

Converged after 3 iterations.

Dipole moment: (-0.199266, -0.115046, -0.000111) |e|*Ang

Energy contributions relative to reference atoms: (reference = -13940466.469256)

Kinetic:       -311.027415
Potential:     +257.654169
External:        +0.000000
XC:             -55.938441
Entropy (-ST):   -0.285671
Local:           +2.927385
--------------------------
Free energy:   -106.669974
Extrapolated:  -106.527139

Showing only first 2 kpts
 Kpt  Band  Eigenvalues  Occupancy
  0   146     -0.67998    1.99998
  0   147     -0.67834    1.99998
  0   148     -0.04452    1.99101
  0   149     -0.04445    1.99100

  1   146     -0.85437    2.00000
  1   147     -0.67151    1.99998
  1   148     -0.67150    1.99998
  1   149     -0.50907    1.99991


Fermi level: 0.49548

No gap

Forces in eV/Ang:
  0 Au    0.00024    0.00014    0.00221
  1 Au   -0.00000    0.00004    0.00184
  2 Au   -0.00024    0.00014    0.00221
  3 Au    0.00004   -0.00002    0.00184
  4 Au   -0.00004   -0.00002    0.00184
  5 Au    0.00000    0.00019    0.00244
  6 Au    0.00000   -0.00028    0.00221
  7 Au    0.00017   -0.00010    0.00244
  8 Au   -0.00017   -0.00010    0.00244
  9 Au    0.00000    0.00071    0.00018
 10 Au   -0.00038   -0.00022    0.00008
 11 Au    0.00038   -0.00022    0.00008
 12 Au   -0.00089    0.00051    0.00058
 13 Au   -0.00000    0.00044    0.00008
 14 Au    0.00089    0.00051    0.00058
 15 Au   -0.00062   -0.00036    0.00018
 16 Au    0.00062   -0.00036    0.00018
 17 Au   -0.00000   -0.00103    0.00058
 18 Au    0.00000    0.00000   -0.00193
 19 Au    0.00008   -0.00040   -0.00223
 20 Au   -0.00008   -0.00040   -0.00223
 21 Au   -0.00031    0.00027   -0.00223
 22 Au    0.00000    0.00000   -0.00188
 23 Au    0.00031    0.00027   -0.00223
 24 Au   -0.00039    0.00013   -0.00223
 25 Au    0.00039    0.00013   -0.00223
 26 Au   -0.00000    0.00000   -0.00307

System changes: positions 

Initializing position-dependent things.

Density initialized from wave functions
                                              
                                              
                                              
                                              
                                              
                  Au     Au     Au            
                                              
            Au     AAu    AAu    Au           
       Au     Au     AAu    Au                
                                              
        Au     Au     AAu    Au     Au        
                                              
                 Au     Au     Au             
                                              
           Au      Au     Au                  
                                              
                                              
                                              
                                              

Positions:
   0 Au     1.476797    0.852629    6.135621    ( 0.0000,  0.0000,  0.0000)
   1 Au     4.430378    0.852620    6.135611    ( 0.0000,  0.0000,  0.0000)
   2 Au     7.383958    0.852629    6.135621    ( 0.0000,  0.0000,  0.0000)
   3 Au     2.953580    3.410509    6.135611    ( 0.0000,  0.0000,  0.0000)
   4 Au     5.907175    3.410509    6.135611    ( 0.0000,  0.0000,  0.0000)
   5 Au     8.860755    3.410521    6.135666    ( 0.0000,  0.0000,  0.0000)
   6 Au     4.430378    5.968381    6.135621    ( 0.0000,  0.0000,  0.0000)
   7 Au     7.383975    5.968379    6.135666    ( 0.0000,  0.0000,  0.0000)
   8 Au    10.337535    5.968379    6.135666    ( 0.0000,  0.0000,  0.0000)
   9 Au    -0.000000    1.705251    8.411591    ( 0.0000,  0.0000,  0.0000)
  10 Au     2.953598    1.705261    8.411608    ( 0.0000,  0.0000,  0.0000)
  11 Au     5.907157    1.705261    8.411608    ( 0.0000,  0.0000,  0.0000)
  12 Au     1.476830    4.263111    8.411606    ( 0.0000,  0.0000,  0.0000)
  13 Au     4.430378    4.263118    8.411608    ( 0.0000,  0.0000,  0.0000)
  14 Au     7.383925    4.263111    8.411606    ( 0.0000,  0.0000,  0.0000)
  15 Au     2.953587    6.821013    8.411591    ( 0.0000,  0.0000,  0.0000)
  16 Au     5.907168    6.821013    8.411591    ( 0.0000,  0.0000,  0.0000)
  17 Au     8.860755    6.821055    8.411606    ( 0.0000,  0.0000,  0.0000)
  18 Au     0.000000    0.000000   10.687606    ( 0.0000,  0.0000,  0.0000)
  19 Au     2.953579   -0.000011   10.687601    ( 0.0000,  0.0000,  0.0000)
  20 Au     5.907176   -0.000011   10.687601    ( 0.0000,  0.0000,  0.0000)
  21 Au     1.476780    2.557880   10.687601    ( 0.0000,  0.0000,  0.0000)
  22 Au     4.430378    2.557880   10.687592    ( 0.0000,  0.0000,  0.0000)
  23 Au     7.383975    2.557880   10.687601    ( 0.0000,  0.0000,  0.0000)
  24 Au     2.953578    5.115770   10.687601    ( 0.0000,  0.0000,  0.0000)
  25 Au     5.907177    5.115770   10.687601    ( 0.0000,  0.0000,  0.0000)
  26 Au     8.860755    5.115759   10.687569    ( 0.0000,  0.0000,  0.0000)

Unit cell:
           periodic     x           y           z      points  spacing
  1. axis:    yes    8.860755    0.000000    0.000000    45     0.1705
  2. axis:    yes    4.430378    7.673639    0.000000    45     0.1705
  3. axis:    no     0.000000    0.000000   16.823184    84     0.2003

  Lengths:   8.860755   8.860755  16.823184
  Angles:   90.000000  90.000000  60.000000

Effective grid spacing dv^(1/3) = 0.1888

     iter     time        total  log10-change:
                         energy  eigst   dens
iter:   1 14:46:46  -106.527130  -6.74
iter:   2 14:46:51  -106.527134  -8.41c -4.69c
iter:   3 14:46:56  -106.527145c -7.50c -4.81c

Converged after 3 iterations.

Dipole moment: (-0.198004, -0.114318, -0.000094) |e|*Ang

Energy contributions relative to reference atoms: (reference = -13940466.469256)

Kinetic:       -311.493527
Potential:     +258.091361
External:        +0.000000
XC:             -55.909240
Entropy (-ST):   -0.285662
Local:           +2.927092
--------------------------
Free energy:   -106.669976
Extrapolated:  -106.527145

Showing only first 2 kpts
 Kpt  Band  Eigenvalues  Occupancy
  0   146     -0.68037    1.99998
  0   147     -0.67858    1.99998
  0   148     -0.04485    1.99100
  0   149     -0.04480    1.99100

  1   146     -0.85458    2.00000
  1   147     -0.67184    1.99998
  1   148     -0.67183    1.99998
  1   149     -0.50937    1.99991


Fermi level: 0.49512

No gap

Forces in eV/Ang:
  0 Au   -0.00010   -0.00006    0.00075
  1 Au    0.00000   -0.00000    0.00091
  2 Au    0.00010   -0.00006    0.00075
  3 Au   -0.00000    0.00000    0.00091
  4 Au    0.00000    0.00000    0.00091
  5 Au   -0.00000   -0.00013    0.00040
  6 Au    0.00000    0.00011    0.00075
  7 Au   -0.00011    0.00006    0.00040
  8 Au    0.00011    0.00006    0.00040
  9 Au    0.00000   -0.00026    0.00030
 10 Au   -0.00004   -0.00002    0.00026
 11 Au    0.00004   -0.00002    0.00026
 12 Au   -0.00002    0.00001    0.00029
 13 Au    0.00000    0.00005    0.00026
 14 Au    0.00002    0.00001    0.00029
 15 Au    0.00023    0.00013    0.00030
 16 Au   -0.00023    0.00013    0.00030
 17 Au    0.00000   -0.00003    0.00029
 18 Au   -0.00000    0.00000   -0.00065
 19 Au    0.00006    0.00019   -0.00068
 20 Au   -0.00006    0.00019   -0.00068
 21 Au    0.00020   -0.00004   -0.00068
 22 Au   -0.00000    0.00000   -0.00064
 23 Au   -0.00020   -0.00004   -0.00068
 24 Au    0.00014   -0.00015   -0.00068
 25 Au   -0.00014   -0.00015   -0.00068
 26 Au   -0.00000    0.00000   -0.00030

Writing to Assignment 4/output_T3/Au_111-surface_relaxed.gpaw (mode='')

Timing:                                      incl.     excl.
-------------------------------------------------------------------
Density initialized from wave functions:     4.715     4.060   0.7% |
 Symmetrize density:                         0.655     0.655   0.1% |
Forces:                                     14.021    14.021   2.3% ||
Hamiltonian:                                 2.057     0.042   0.0% |
 Atomic:                                     0.392     0.088   0.0% |
  XC Correction:                             0.304     0.304   0.0% |
 Calculate atomic Hamiltonians:              0.896     0.896   0.1% |
 Communicate:                                0.234     0.234   0.0% |
 Initialize Hamiltonian:                     0.000     0.000   0.0% |
 Poisson:                                    0.009     0.009   0.0% |
 XC 3D grid:                                 0.484     0.484   0.1% |
LCAO initialization:                         7.393     0.064   0.0% |
 LCAO eigensolver:                           0.439     0.001   0.0% |
  Calculate projections:                     0.003     0.003   0.0% |
  DenseAtomicCorrection:                     0.004     0.004   0.0% |
  Distribute overlap matrix:                 0.053     0.053   0.0% |
  Orbital Layouts:                           0.115     0.115   0.0% |
  Potential matrix:                          0.253     0.253   0.0% |
  Sum over cells:                            0.009     0.009   0.0% |
 LCAO to grid:                               6.669     6.669   1.1% |
 Set positions (LCAO WFS):                   0.222     0.053   0.0% |
  Basic WFS set positions:                   0.005     0.005   0.0% |
  Basis functions set positions:             0.000     0.000   0.0% |
  P tci:                                     0.098     0.098   0.0% |
  ST tci:                                    0.032     0.032   0.0% |
  mktci:                                     0.033     0.033   0.0% |
PWDescriptor:                                0.370     0.370   0.1% |
Redistribute:                                0.018     0.018   0.0% |
SCF-cycle:                                 581.994     0.316   0.1% |
 Davidson:                                 511.597    93.753  15.2% |-----|
  Apply H:                                  59.651    58.060   9.4% |---|
   HMM T:                                    1.592     1.592   0.3% |
  Subspace diag:                            88.534     0.049   0.0% |
   calc_h_matrix:                           68.113     9.058   1.5% ||
    Apply H:                                59.056    57.506   9.3% |---|
     HMM T:                                  1.550     1.550   0.3% |
   diagonalize:                              5.294     5.294   0.9% |
   rotate_psi:                              15.078    15.078   2.4% ||
  calc. matrices:                          174.775    56.520   9.2% |---|
   Apply H:                                118.254   115.132  18.6% |------|
    HMM T:                                   3.122     3.122   0.5% |
  diagonalize:                              65.656    65.656  10.6% |---|
  rotate_psi:                               29.229    29.229   4.7% |-|
 Density:                                   47.864     0.003   0.0% |
  Atomic density matrices:                   0.492     0.492   0.1% |
  Mix:                                      11.319    11.319   1.8% ||
  Multipole moments:                         0.024     0.024   0.0% |
  Pseudo density:                           36.028    29.367   4.8% |-|
   Symmetrize density:                       6.660     6.660   1.1% |
 Hamiltonian:                               18.792     0.372   0.1% |
  Atomic:                                    3.758     0.947   0.2% |
   XC Correction:                            2.811     2.811   0.5% |
  Calculate atomic Hamiltonians:             8.264     8.264   1.3% ||
  Communicate:                               1.855     1.855   0.3% |
  Poisson:                                   0.097     0.097   0.0% |
  XC 3D grid:                                4.447     4.447   0.7% |
 Orthonormalize:                             3.425     0.007   0.0% |
  calc_s_matrix:                             0.424     0.424   0.1% |
  inverse-cholesky:                          0.200     0.200   0.0% |
  projections:                               2.021     2.021   0.3% |
  rotate_psi_s:                              0.772     0.772   0.1% |
Set symmetry:                                0.005     0.005   0.0% |
Other:                                       7.130     7.130   1.2% |
-------------------------------------------------------------------
Total:                                               617.705 100.0%

Memory usage: 486.46 MiB
Date: Thu Feb 16 14:46:58 2023
