
  ___ ___ ___ _ _ _  
 |   |   |_  | | | | 
 | | | | | . | | | | 
 |__ |  _|___|_____|  22.8.0
 |___|_|             

User:   gotols@vera10-2
Date:   Thu Feb 16 12:07:49 2023
Arch:   x86_64
Pid:    441368
CWD:    /cephyr/users/gotols/Vera/TIF320-Computational-materials-and-molecular-physics-Assignments
Python: 3.10.4
gpaw:   /apps/Arch/software/GPAW/22.8.0-foss-2022a/lib/python3.10/site-packages/gpaw
_gpaw:  /apps/Arch/software/GPAW/22.8.0-foss-2022a/lib/python3.10/site-packages/
        _gpaw.cpython-310-x86_64-linux-gnu.so
ase:    /apps/Arch/software/ASE/3.22.1-foss-2022a/lib/python3.10/site-packages/ase (version 3.22.1)
numpy:  /apps/Arch/software/SciPy-bundle/2022.05-foss-2022a/lib/python3.10/site-packages/numpy (version 1.22.3)
scipy:  /apps/Arch/software/SciPy-bundle/2022.05-foss-2022a/lib/python3.10/site-packages/scipy (version 1.8.1)
libxc:  5.2.3
units:  Angstrom and eV
cores: 1
OpenMP: False
OMP_NUM_THREADS: 1

Input parameters:
  kpts: [4 4 1]
  mode: {ecut: 450.00000000000006,
         name: pw}

System changes: positions, numbers, cell, pbc, initial_charges, initial_magmoms 

Initialize ...

species:
  Pt:
    name: Platinum
    id: 5a6399afde4becbffda6f57f3efd9534
    Z: 78.0
    valence: 16
    core: 62
    charge: 0.0
    file: /apps/Common/software/GPAW-setups/0.9.20000/Pt.LDA.gz
    compensation charges: {type: gauss,
                           rc: 0.41,
                           lmax: 2}
    cutoffs: {filter: 2.26,
              core: 2.26}
    valence states:
      #              energy  rcut
      - 6s(1.00)    -5.930   1.307
      - 5p(6.00)   -56.318   1.371
      - 6p(0.00)    -0.962   1.371
      - 5d(9.00)    -6.387   1.307
      -  s          21.281   1.307
      -  d          20.825   1.307
  
    # Using partial waves for Pt as LCAO basis

Reference energy: -13502612.219457  # eV

Spin-paired calculation

Convergence criteria:
 Maximum [total energy] change in last 3 cyles: 0.0005 eV / electron
 Maximum integral of absolute [dens]ity change: 0.0001 electrons / valence electron
 Maximum integral of absolute [eigenst]ate change: 4e-08 eV^2 / valence electron
 Maximum number of scf [iter]ations: 333
 (Square brackets indicate name in SCF output, whereas a 'c' in
 the SCF output indicates the quantity has converged.)

Symmetries present (total): 6

  ( 1  0  0)  ( 1 -1  0)  ( 0  1  0)  ( 0 -1  0)  (-1  1  0)  (-1  0  0)
  ( 0  1  0)  ( 0 -1  0)  ( 1  0  0)  ( 1 -1  0)  (-1  0  0)  (-1  1  0)
  ( 0  0  1)  ( 0  0  1)  ( 0  0  1)  ( 0  0  1)  ( 0  0  1)  ( 0  0  1)
Note: your k-points are not as symmetric as your crystal!

16 k-points: 4 x 4 x 1 Monkhorst-Pack grid
6 k-points in the irreducible part of the Brillouin zone
       k-points in crystal coordinates                weights
   0:     0.12500000   -0.12500000    0.00000000          2/16
   1:     0.12500000    0.12500000    0.00000000          2/16
   2:     0.37500000   -0.37500000    0.00000000          2/16
   3:     0.37500000   -0.12500000    0.00000000          4/16
   4:     0.37500000    0.12500000    0.00000000          4/16
   5:     0.37500000    0.37500000    0.00000000          2/16

Wave functions: Plane wave expansion
  Cutoff energy: 450.000 eV
  Number of coefficients (min, max): 22059, 22107
  Pulay-stress correction: 0.000000 eV/Ang^3 (de/decut=0.000000)
  Using FFTW library
  ScaLapack parameters: grid=1x1, blocksize=None
  Wavefunction extrapolation:
    Improved wavefunction reuse through dual PAW basis 

Occupation numbers: Fermi-Dirac:
  width: 0.1000  # eV
 

Eigensolver
   Davidson(niter=2) 

Densities:
  Coarse grid: 42*42*84 grid
  Fine grid: 84*84*168 grid
  Total Charge: 0.000000 

Density mixing:
  Method: separate
  Backend: pulay
  Linear mixing parameter: 0.05
  old densities: 5
  Damping of long wavelength oscillations: 50 

Hamiltonian:
  XC and Coulomb potentials evaluated on a 84*84*168 grid
  Using the LDA Exchange-Correlation functional
  External potential:
    NoExternalPotential
 

Memory estimate:
  Process memory now: 1568.74 MiB
  Calculator: 754.02 MiB
    Density: 64.03 MiB
      Arrays: 29.39 MiB
      Localized functions: 23.34 MiB
      Mixer: 11.30 MiB
    Hamiltonian: 19.70 MiB
      Arrays: 19.22 MiB
      XC: 0.00 MiB
      Poisson: 0.00 MiB
      vbar: 0.48 MiB
    Wavefunctions: 670.29 MiB
      Arrays psit_nG: 534.32 MiB
      Eigensolver: 101.38 MiB
      Projections: 11.75 MiB
      Projectors: 15.16 MiB
      PW-descriptor: 7.68 MiB

Total number of cores used: 1

Number of atoms: 27
Number of atomic orbitals: 324
Number of bands in calculation: 264
Number of valence electrons: 432
Bands to converge: occupied

... initialized

Initializing position-dependent things.

Density initialized from atomic densities
Creating initial wave functions:
  264 bands from LCAO basis set

                                            
                                            
                                            
                                            
                                            
                 Pt     Pt     Pt           
            Pt     Pt     Pt                
       Pt     Pt  Pt Pt  Pt    Pt           
             Pt     Pt     Pt               
        Pt     Pt     Pt                    
                     Pt     Pt    Pt        
                Pt     Pt     Pt            
                                            
           Pt     Pt     Pt                 
                                            
                                            
                                            
                                            

Positions:
   0 Pt     1.403607    0.810373    6.000000    ( 0.0000,  0.0000,  0.0000)
   1 Pt     4.210821    0.810373    6.000000    ( 0.0000,  0.0000,  0.0000)
   2 Pt     7.018035    0.810373    6.000000    ( 0.0000,  0.0000,  0.0000)
   3 Pt     2.807214    3.241491    6.000000    ( 0.0000,  0.0000,  0.0000)
   4 Pt     5.614428    3.241491    6.000000    ( 0.0000,  0.0000,  0.0000)
   5 Pt     8.421642    3.241491    6.000000    ( 0.0000,  0.0000,  0.0000)
   6 Pt     4.210821    5.672610    6.000000    ( 0.0000,  0.0000,  0.0000)
   7 Pt     7.018035    5.672610    6.000000    ( 0.0000,  0.0000,  0.0000)
   8 Pt     9.825249    5.672610    6.000000    ( 0.0000,  0.0000,  0.0000)
   9 Pt    -0.000000    1.620746    8.292081    ( 0.0000,  0.0000,  0.0000)
  10 Pt     2.807214    1.620746    8.292081    ( 0.0000,  0.0000,  0.0000)
  11 Pt     5.614428    1.620746    8.292081    ( 0.0000,  0.0000,  0.0000)
  12 Pt     1.403607    4.051864    8.292081    ( 0.0000,  0.0000,  0.0000)
  13 Pt     4.210821    4.051864    8.292081    ( 0.0000,  0.0000,  0.0000)
  14 Pt     7.018035    4.051864    8.292081    ( 0.0000,  0.0000,  0.0000)
  15 Pt     2.807214    6.482983    8.292081    ( 0.0000,  0.0000,  0.0000)
  16 Pt     5.614428    6.482983    8.292081    ( 0.0000,  0.0000,  0.0000)
  17 Pt     8.421642    6.482983    8.292081    ( 0.0000,  0.0000,  0.0000)
  18 Pt     0.000000    0.000000   10.584161    ( 0.0000,  0.0000,  0.0000)
  19 Pt     2.807214    0.000000   10.584161    ( 0.0000,  0.0000,  0.0000)
  20 Pt     5.614428    0.000000   10.584161    ( 0.0000,  0.0000,  0.0000)
  21 Pt     1.403607    2.431119   10.584161    ( 0.0000,  0.0000,  0.0000)
  22 Pt     4.210821    2.431119   10.584161    ( 0.0000,  0.0000,  0.0000)
  23 Pt     7.018035    2.431119   10.584161    ( 0.0000,  0.0000,  0.0000)
  24 Pt     2.807214    4.862237   10.584161    ( 0.0000,  0.0000,  0.0000)
  25 Pt     5.614428    4.862237   10.584161    ( 0.0000,  0.0000,  0.0000)
  26 Pt     8.421642    4.862237   10.584161    ( 0.0000,  0.0000,  0.0000)

Unit cell:
           periodic     x           y           z      points  spacing
  1. axis:    yes    8.421642    0.000000    0.000000    42     0.1737
  2. axis:    yes    4.210821    7.293356    0.000000    42     0.1737
  3. axis:    no     0.000000    0.000000   16.584161    84     0.1974

  Lengths:   8.421642   8.421642  16.584161
  Angles:   90.000000  90.000000  60.000000

Effective grid spacing dv^(1/3) = 0.1901

     iter     time        total  log10-change:
                         energy  eigst   dens
iter:   1 12:09:44  -208.958684
iter:   2 12:10:17  -206.097624  -1.19  -1.39
iter:   3 12:10:51  -200.492166  -1.69  -1.44
iter:   4 12:11:24  -195.784452  -1.31  -1.58
iter:   5 12:11:57  -195.963612  -2.19  -2.00
iter:   6 12:12:31  -195.481004  -2.76  -2.09
iter:   7 12:13:04  -195.352817  -3.19  -2.26
iter:   8 12:13:38  -195.334269c -3.87  -2.32
iter:   9 12:14:11  -195.229863c -3.09  -2.35
iter:  10 12:14:45  -195.233050c -3.64  -2.99
iter:  11 12:15:18  -195.230385c -4.51  -3.11
iter:  12 12:15:51  -195.231401c -4.87  -3.17
iter:  13 12:16:25  -195.232869c -5.15  -3.13
iter:  14 12:16:58  -195.231897c -5.13  -3.08
iter:  15 12:17:31  -195.231176c -5.24  -3.10
iter:  16 12:18:04  -195.229219c -4.83  -3.12
iter:  17 12:18:38  -195.229638c -6.30  -3.21
iter:  18 12:19:11  -195.234230c -5.04  -3.24
iter:  19 12:19:44  -195.234524c -5.31  -3.45
iter:  20 12:20:18  -195.233988c -5.58  -3.51
iter:  21 12:20:51  -195.233824c -6.68  -3.70
iter:  22 12:21:24  -195.233441c -5.76  -3.78
iter:  23 12:21:58  -195.233013c -6.03  -3.93
iter:  24 12:22:31  -195.232809c -6.48  -3.93
iter:  25 12:23:05  -195.232683c -6.66  -4.13c
iter:  26 12:23:38  -195.232716c -6.78  -4.21c
iter:  27 12:24:12  -195.232657c -6.87  -4.20c
iter:  28 12:24:45  -195.232684c -7.79c -4.85c

Converged after 28 iterations.

Dipole moment: (-0.204223, -0.117908, -0.000011) |e|*Ang

Energy contributions relative to reference atoms: (reference = -13502612.219457)

Kinetic:       -418.267391
Potential:     +339.681573
External:        +0.000000
XC:             -99.669799
Entropy (-ST):   -1.851366
Local:          -16.051385
--------------------------
Free energy:   -196.158367
Extrapolated:  -195.232684

Showing only first 2 kpts
 Kpt  Band  Eigenvalues  Occupancy
  0   214      0.90354    1.32201
  0   215      0.90356    1.32193
  0   216      0.91512    1.26921
  0   217      0.97196    0.99181

  1   214      0.73197    1.83112
  1   215      0.74820    1.80427
  1   216      0.79963    1.69287
  1   217      0.79963    1.69287


Fermi level: 0.97032

No gap

Forces in eV/Ang:
  0 Pt    0.00000    0.00000    0.61526
  1 Pt    0.00000    0.00001    0.61526
  2 Pt   -0.00000    0.00000    0.61526
  3 Pt    0.00000   -0.00000    0.61526
  4 Pt   -0.00000   -0.00000    0.61526
  5 Pt   -0.00000   -0.00000    0.61526
  6 Pt    0.00000   -0.00000    0.61526
  7 Pt   -0.00000    0.00000    0.61526
  8 Pt    0.00000    0.00000    0.61526
  9 Pt    0.00000    0.00000    0.00018
 10 Pt    0.00000    0.00000    0.00018
 11 Pt   -0.00000    0.00000    0.00018
 12 Pt    0.00000   -0.00000    0.00018
 13 Pt    0.00000   -0.00000    0.00018
 14 Pt   -0.00000   -0.00000    0.00018
 15 Pt   -0.00000   -0.00000    0.00018
 16 Pt    0.00000   -0.00000    0.00018
 17 Pt   -0.00000    0.00000    0.00018
 18 Pt   -0.00000   -0.00000   -0.61503
 19 Pt    0.00000    0.00000   -0.61502
 20 Pt   -0.00000    0.00000   -0.61502
 21 Pt    0.00000    0.00000   -0.61502
 22 Pt   -0.00000   -0.00000   -0.61502
 23 Pt   -0.00000    0.00000   -0.61502
 24 Pt    0.00000   -0.00000   -0.61502
 25 Pt   -0.00000   -0.00000   -0.61502
 26 Pt    0.00000   -0.00000   -0.61502

System changes: positions 

Initializing position-dependent things.

Density initialized from wave functions
                                            
                                            
                                            
                                            
                 Pt     Pt     Pt           
                                            
            Pt    PPt    PPt   Pt           
       Pt     Pt     Pt                     
             Pt     Pt     Pt               
        Pt     Pt    PPt    Pt    Pt        
                                            
                Pt     Pt     Pt            
           Pt     Pt     Pt                 
                                            
                                            
                                            
                                            

Positions:
   0 Pt     1.403608    0.810373    6.094299    ( 0.0000,  0.0000,  0.0000)
   1 Pt     4.210821    0.810374    6.094299    ( 0.0000,  0.0000,  0.0000)
   2 Pt     7.018034    0.810373    6.094299    ( 0.0000,  0.0000,  0.0000)
   3 Pt     2.807215    3.241491    6.094299    ( 0.0000,  0.0000,  0.0000)
   4 Pt     5.614427    3.241491    6.094299    ( 0.0000,  0.0000,  0.0000)
   5 Pt     8.421642    3.241491    6.094299    ( 0.0000,  0.0000,  0.0000)
   6 Pt     4.210821    5.672609    6.094299    ( 0.0000,  0.0000,  0.0000)
   7 Pt     7.018035    5.672610    6.094299    ( 0.0000,  0.0000,  0.0000)
   8 Pt     9.825249    5.672610    6.094299    ( 0.0000,  0.0000,  0.0000)
   9 Pt    -0.000000    1.620746    8.292109    ( 0.0000,  0.0000,  0.0000)
  10 Pt     2.807214    1.620746    8.292109    ( 0.0000,  0.0000,  0.0000)
  11 Pt     5.614427    1.620746    8.292109    ( 0.0000,  0.0000,  0.0000)
  12 Pt     1.403607    4.051864    8.292109    ( 0.0000,  0.0000,  0.0000)
  13 Pt     4.210821    4.051864    8.292109    ( 0.0000,  0.0000,  0.0000)
  14 Pt     7.018034    4.051864    8.292109    ( 0.0000,  0.0000,  0.0000)
  15 Pt     2.807214    6.482983    8.292109    ( 0.0000,  0.0000,  0.0000)
  16 Pt     5.614428    6.482983    8.292109    ( 0.0000,  0.0000,  0.0000)
  17 Pt     8.421642    6.482983    8.292109    ( 0.0000,  0.0000,  0.0000)
  18 Pt    -0.000000   -0.000000   10.489898    ( 0.0000,  0.0000,  0.0000)
  19 Pt     2.807214    0.000000   10.489898    ( 0.0000,  0.0000,  0.0000)
  20 Pt     5.614427    0.000000   10.489898    ( 0.0000,  0.0000,  0.0000)
  21 Pt     1.403607    2.431119   10.489898    ( 0.0000,  0.0000,  0.0000)
  22 Pt     4.210821    2.431119   10.489898    ( 0.0000,  0.0000,  0.0000)
  23 Pt     7.018034    2.431119   10.489898    ( 0.0000,  0.0000,  0.0000)
  24 Pt     2.807214    4.862237   10.489898    ( 0.0000,  0.0000,  0.0000)
  25 Pt     5.614428    4.862237   10.489898    ( 0.0000,  0.0000,  0.0000)
  26 Pt     8.421642    4.862237   10.489899    ( 0.0000,  0.0000,  0.0000)

Unit cell:
           periodic     x           y           z      points  spacing
  1. axis:    yes    8.421642    0.000000    0.000000    42     0.1737
  2. axis:    yes    4.210821    7.293356    0.000000    42     0.1737
  3. axis:    no     0.000000    0.000000   16.584161    84     0.1974

  Lengths:   8.421642   8.421642  16.584161
  Angles:   90.000000  90.000000  60.000000

Effective grid spacing dv^(1/3) = 0.1901

     iter     time        total  log10-change:
                         energy  eigst   dens
iter:   1 12:25:28  -212.861543  -0.74
iter:   2 12:26:02  -196.749801  -1.44  -1.41
iter:   3 12:26:36  -196.154924  -2.13  -1.93
iter:   4 12:27:09  -195.956152  -2.88  -2.18
iter:   5 12:27:43  -195.864824  -2.94  -2.29
iter:   6 12:28:16  -195.873492c -3.27  -2.48
iter:   7 12:28:50  -195.845580c -3.99  -2.70
iter:   8 12:29:24  -195.847074c -4.07  -2.91
iter:   9 12:29:57  -195.845228c -4.99  -3.08
iter:  10 12:30:31  -195.837948c -4.47  -3.13
iter:  11 12:31:05  -195.838476c -5.42  -3.46
iter:  12 12:31:38  -195.838754c -5.07  -3.63
iter:  13 12:32:12  -195.838083c -6.24  -3.81
iter:  14 12:32:46  -195.837805c -6.46  -3.93
iter:  15 12:33:20  -195.837847c -6.92  -3.97
iter:  16 12:33:54  -195.837977c -6.86  -4.01c
iter:  17 12:34:27  -195.837964c -7.29  -4.04c
iter:  18 12:35:01  -195.837714c -6.95  -4.07c
iter:  19 12:35:35  -195.837791c -7.54c -4.34c

Converged after 19 iterations.

Dipole moment: (-0.280035, -0.161678, 0.000053) |e|*Ang

Energy contributions relative to reference atoms: (reference = -13502612.219457)

Kinetic:       -326.536811
Potential:     +261.237288
External:        +0.000000
XC:            -113.252843
Entropy (-ST):   -1.844129
Local:          -16.363360
--------------------------
Free energy:   -196.759855
Extrapolated:  -195.837791

Showing only first 2 kpts
 Kpt  Band  Eigenvalues  Occupancy
  0   214      0.94561    1.47597
  0   215      0.94562    1.47592
  0   216      0.99906    1.24540
  0   217      1.09431    0.77801

  1   214      0.82964    1.79964
  1   215      0.82966    1.79961
  1   216      0.83550    1.78883
  1   217      0.83552    1.78879


Fermi level: 1.04916

No gap

Forces in eV/Ang:
  0 Pt   -0.00001   -0.00000    0.07422
  1 Pt    0.00000   -0.00001    0.07421
  2 Pt    0.00001   -0.00000    0.07422
  3 Pt   -0.00001    0.00000    0.07421
  4 Pt    0.00001    0.00000    0.07421
  5 Pt    0.00000    0.00000    0.07422
  6 Pt    0.00000    0.00001    0.07422
  7 Pt    0.00000   -0.00000    0.07422
  8 Pt   -0.00000   -0.00000    0.07422
  9 Pt   -0.00000   -0.00000   -0.00024
 10 Pt   -0.00001   -0.00000   -0.00024
 11 Pt    0.00001   -0.00000   -0.00024
 12 Pt   -0.00001    0.00000   -0.00024
 13 Pt    0.00000    0.00001   -0.00024
 14 Pt    0.00001    0.00000   -0.00024
 15 Pt    0.00000    0.00000   -0.00024
 16 Pt   -0.00000    0.00000   -0.00024
 17 Pt   -0.00000   -0.00001   -0.00024
 18 Pt    0.00000    0.00000   -0.07426
 19 Pt   -0.00000   -0.00000   -0.07427
 20 Pt    0.00000   -0.00000   -0.07427
 21 Pt   -0.00000   -0.00000   -0.07427
 22 Pt    0.00000   -0.00000   -0.07426
 23 Pt    0.00000   -0.00000   -0.07427
 24 Pt   -0.00000    0.00000   -0.07427
 25 Pt    0.00000    0.00000   -0.07427
 26 Pt    0.00000    0.00000   -0.07427

System changes: positions 

Initializing position-dependent things.

Density initialized from wave functions
                                            
                                            
                                            
                                            
                 Pt     Pt     Pt           
                                            
            Pt    PPt    PPt   Pt           
       Pt     Pt     Pt                     
             Pt     Pt     Pt               
        Pt     Pt    PPt    Pt    Pt        
                                            
                Pt     Pt     Pt            
           Pt     Pt     Pt                 
                                            
                                            
                                            
                                            

Positions:
   0 Pt     1.403606    0.810372    6.113361    ( 0.0000,  0.0000,  0.0000)
   1 Pt     4.210821    0.810371    6.113359    ( 0.0000,  0.0000,  0.0000)
   2 Pt     7.018036    0.810372    6.113361    ( 0.0000,  0.0000,  0.0000)
   3 Pt     2.807213    3.241492    6.113359    ( 0.0000,  0.0000,  0.0000)
   4 Pt     5.614429    3.241492    6.113359    ( 0.0000,  0.0000,  0.0000)
   5 Pt     8.421642    3.241492    6.113361    ( 0.0000,  0.0000,  0.0000)
   6 Pt     4.210821    5.672611    6.113361    ( 0.0000,  0.0000,  0.0000)
   7 Pt     7.018035    5.672610    6.113361    ( 0.0000,  0.0000,  0.0000)
   8 Pt     9.825248    5.672610    6.113361    ( 0.0000,  0.0000,  0.0000)
   9 Pt    -0.000000    1.620745    8.292040    ( 0.0000,  0.0000,  0.0000)
  10 Pt     2.807212    1.620745    8.292041    ( 0.0000,  0.0000,  0.0000)
  11 Pt     5.614429    1.620745    8.292041    ( 0.0000,  0.0000,  0.0000)
  12 Pt     1.403605    4.051865    8.292040    ( 0.0000,  0.0000,  0.0000)
  13 Pt     4.210821    4.051866    8.292041    ( 0.0000,  0.0000,  0.0000)
  14 Pt     7.018037    4.051865    8.292040    ( 0.0000,  0.0000,  0.0000)
  15 Pt     2.807214    6.482983    8.292040    ( 0.0000,  0.0000,  0.0000)
  16 Pt     5.614427    6.482983    8.292040    ( 0.0000,  0.0000,  0.0000)
  17 Pt     8.421642    6.482981    8.292040    ( 0.0000,  0.0000,  0.0000)
  18 Pt    -0.000000   -0.000000   10.470824    ( 0.0000,  0.0000,  0.0000)
  19 Pt     2.807213   -0.000001   10.470824    ( 0.0000,  0.0000,  0.0000)
  20 Pt     5.614428   -0.000001   10.470824    ( 0.0000,  0.0000,  0.0000)
  21 Pt     1.403606    2.431118   10.470824    ( 0.0000,  0.0000,  0.0000)
  22 Pt     4.210821    2.431119   10.470825    ( 0.0000,  0.0000,  0.0000)
  23 Pt     7.018036    2.431118   10.470824    ( 0.0000,  0.0000,  0.0000)
  24 Pt     2.807214    4.862238   10.470824    ( 0.0000,  0.0000,  0.0000)
  25 Pt     5.614428    4.862238   10.470824    ( 0.0000,  0.0000,  0.0000)
  26 Pt     8.421642    4.862237   10.470824    ( 0.0000,  0.0000,  0.0000)

Unit cell:
           periodic     x           y           z      points  spacing
  1. axis:    yes    8.421642    0.000000    0.000000    42     0.1737
  2. axis:    yes    4.210821    7.293356    0.000000    42     0.1737
  3. axis:    no     0.000000    0.000000   16.584161    84     0.1974

  Lengths:   8.421642   8.421642  16.584161
  Angles:   90.000000  90.000000  60.000000

Effective grid spacing dv^(1/3) = 0.1901

     iter     time        total  log10-change:
                         energy  eigst   dens
iter:   1 12:36:18  -196.745931  -2.08
iter:   2 12:36:51  -195.892616  -2.73  -2.07
iter:   3 12:37:25  -195.858985  -3.50  -2.61
iter:   4 12:37:58  -195.847638c -3.99  -2.83
iter:   5 12:38:32  -195.845001c -4.63  -2.99
iter:   6 12:39:05  -195.842102c -4.40  -3.06
iter:   7 12:39:39  -195.843498c -4.99  -3.24
iter:   8 12:40:13  -195.844193c -5.64  -3.73
iter:   9 12:40:46  -195.843894c -6.31  -3.77
iter:  10 12:41:20  -195.843000c -5.95  -3.86
iter:  11 12:41:53  -195.843062c -6.66  -4.14c
iter:  12 12:42:27  -195.843033c -6.79  -4.19c
iter:  13 12:43:01  -195.843015c -7.69c -4.46c

Converged after 13 iterations.

Dipole moment: (-0.297465, -0.171742, -0.000006) |e|*Ang

Energy contributions relative to reference atoms: (reference = -13502612.219457)

Kinetic:       -305.538565
Potential:     +243.316689
External:        +0.000000
XC:            -116.259051
Entropy (-ST):   -1.832327
Local:          -16.445925
--------------------------
Free energy:   -196.759179
Extrapolated:  -195.843015

Showing only first 2 kpts
 Kpt  Band  Eigenvalues  Occupancy
  0   214      0.95005    1.51384
  0   215      0.95006    1.51380
  0   216      1.01168    1.25409
  0   217      1.10760    0.78366

  1   214      0.84114    1.80492
  1   215      0.84117    1.80488
  1   216      0.84797    1.79256
  1   217      0.84799    1.79253


Fermi level: 1.06363

No gap

Forces in eV/Ang:
  0 Pt    0.00001    0.00001   -0.06714
  1 Pt   -0.00000    0.00001   -0.06711
  2 Pt   -0.00001    0.00001   -0.06714
  3 Pt    0.00001   -0.00001   -0.06711
  4 Pt   -0.00001   -0.00001   -0.06711
  5 Pt    0.00000   -0.00001   -0.06714
  6 Pt    0.00000   -0.00001   -0.06714
  7 Pt   -0.00001    0.00000   -0.06714
  8 Pt    0.00001    0.00000   -0.06714
  9 Pt   -0.00000    0.00001    0.00063
 10 Pt    0.00002    0.00001    0.00060
 11 Pt   -0.00002    0.00001    0.00060
 12 Pt    0.00002   -0.00001    0.00063
 13 Pt    0.00000   -0.00002    0.00060
 14 Pt   -0.00002   -0.00001    0.00063
 15 Pt   -0.00001   -0.00000    0.00063
 16 Pt    0.00001   -0.00000    0.00063
 17 Pt    0.00000    0.00003    0.00063
 18 Pt    0.00000   -0.00000    0.06689
 19 Pt    0.00001    0.00000    0.06690
 20 Pt   -0.00001    0.00000    0.06690
 21 Pt    0.00001    0.00000    0.06690
 22 Pt   -0.00000   -0.00000    0.06688
 23 Pt   -0.00001    0.00000    0.06690
 24 Pt   -0.00000   -0.00001    0.06690
 25 Pt    0.00000   -0.00001    0.06690
 26 Pt   -0.00000   -0.00000    0.06691

System changes: positions 

Initializing position-dependent things.

Density initialized from wave functions
                                            
                                            
                                            
                                            
                 Pt     Pt     Pt           
                                            
            Pt    PPt    PPt   Pt           
       Pt     Pt     Pt                     
             Pt     Pt     Pt               
        Pt     Pt    PPt    Pt    Pt        
                                            
                Pt     Pt     Pt            
           Pt     Pt     Pt                 
                                            
                                            
                                            
                                            

Positions:
   0 Pt     1.403607    0.810373    6.105329    ( 0.0000,  0.0000,  0.0000)
   1 Pt     4.210821    0.810372    6.105330    ( 0.0000,  0.0000,  0.0000)
   2 Pt     7.018035    0.810373    6.105329    ( 0.0000,  0.0000,  0.0000)
   3 Pt     2.807213    3.241492    6.105330    ( 0.0000,  0.0000,  0.0000)
   4 Pt     5.614428    3.241492    6.105330    ( 0.0000,  0.0000,  0.0000)
   5 Pt     8.421642    3.241491    6.105328    ( 0.0000,  0.0000,  0.0000)
   6 Pt     4.210821    5.672610    6.105329    ( 0.0000,  0.0000,  0.0000)
   7 Pt     7.018035    5.672610    6.105328    ( 0.0000,  0.0000,  0.0000)
   8 Pt     9.825249    5.672610    6.105328    ( 0.0000,  0.0000,  0.0000)
   9 Pt    -0.000000    1.620746    8.292105    ( 0.0000,  0.0000,  0.0000)
  10 Pt     2.807214    1.620746    8.292103    ( 0.0000,  0.0000,  0.0000)
  11 Pt     5.614427    1.620746    8.292103    ( 0.0000,  0.0000,  0.0000)
  12 Pt     1.403608    4.051864    8.292105    ( 0.0000,  0.0000,  0.0000)
  13 Pt     4.210821    4.051864    8.292103    ( 0.0000,  0.0000,  0.0000)
  14 Pt     7.018034    4.051864    8.292105    ( 0.0000,  0.0000,  0.0000)
  15 Pt     2.807214    6.482983    8.292105    ( 0.0000,  0.0000,  0.0000)
  16 Pt     5.614428    6.482983    8.292105    ( 0.0000,  0.0000,  0.0000)
  17 Pt     8.421642    6.482984    8.292105    ( 0.0000,  0.0000,  0.0000)
  18 Pt    -0.000000   -0.000000   10.478816    ( 0.0000,  0.0000,  0.0000)
  19 Pt     2.807214   -0.000001   10.478816    ( 0.0000,  0.0000,  0.0000)
  20 Pt     5.614428   -0.000001   10.478816    ( 0.0000,  0.0000,  0.0000)
  21 Pt     1.403606    2.431119   10.478816    ( 0.0000,  0.0000,  0.0000)
  22 Pt     4.210821    2.431119   10.478815    ( 0.0000,  0.0000,  0.0000)
  23 Pt     7.018035    2.431119   10.478816    ( 0.0000,  0.0000,  0.0000)
  24 Pt     2.807213    4.862238   10.478816    ( 0.0000,  0.0000,  0.0000)
  25 Pt     5.614428    4.862238   10.478816    ( 0.0000,  0.0000,  0.0000)
  26 Pt     8.421642    4.862237   10.478817    ( 0.0000,  0.0000,  0.0000)

Unit cell:
           periodic     x           y           z      points  spacing
  1. axis:    yes    8.421642    0.000000    0.000000    42     0.1737
  2. axis:    yes    4.210821    7.293356    0.000000    42     0.1737
  3. axis:    no     0.000000    0.000000   16.584161    84     0.1974

  Lengths:   8.421642   8.421642  16.584161
  Angles:   90.000000  90.000000  60.000000

Effective grid spacing dv^(1/3) = 0.1901

     iter     time        total  log10-change:
                         energy  eigst   dens
iter:   1 12:43:44  -195.969932  -2.81
