27
Lattice="8.421641763931781 0.0 0.0 4.2108208819658905 7.293355709136913 0.0 0.0 0.0 16.584161137365626" Properties=species:S:1:pos:R:3:tags:I:1:forces:R:3:magmoms:R:1 energy=-161.82306252810668 dipole="-0.16809333460404652 -0.09704873198260972 -0.00018306793912392506" magmom=0.0 free_energy=-162.73103138287973 pbc="T T F"
Pt       1.40360675       0.81037273       5.98831614        3       0.00000767       0.00000443      -0.00232588       0.00000000
Pt       4.21082088       0.81037287       5.98831616        3       0.00000000      -0.00000772      -0.00235860       0.00000000
Pt       7.01803501       0.81037273       5.98831614        3      -0.00000767       0.00000443      -0.00232588       0.00000000
Pt       2.80721394       3.24149142       5.98831616        3      -0.00000668       0.00000386      -0.00235860       0.00000000
Pt       5.61442783       3.24149142       5.98831616        3       0.00000668       0.00000386      -0.00235860       0.00000000
Pt       8.42164176       3.24149223       5.98831689        3      -0.00000000       0.00001188      -0.00238614       0.00000000
Pt       4.21082088       5.67261024       5.98831614        3       0.00000000      -0.00000886      -0.00232588       0.00000000
Pt       7.01803550       5.67260959       5.98831689        3       0.00001029      -0.00000594      -0.00238614       0.00000000
Pt       9.82524803       5.67260959       5.98831689        3      -0.00001029      -0.00000594      -0.00238614       0.00000000
Pt      -0.00000000       1.62074583       8.29215327        2       0.00000000      -0.00000942      -0.00098725       0.00000000
Pt       2.80721384       1.62074567       8.29215332        2       0.00000115       0.00000066      -0.00098620       0.00000000
Pt       5.61442792       1.62074567       8.29215332        2      -0.00000115       0.00000066      -0.00098620       0.00000000
Pt       1.40360703       4.05186424       8.29215317        2       0.00000958      -0.00000553      -0.00098440       0.00000000
Pt       4.21082088       4.05186438       8.29215332        2       0.00000000      -0.00000132      -0.00098620       0.00000000
Pt       7.01803473       4.05186424       8.29215317        2      -0.00000958      -0.00000553      -0.00098440       0.00000000
Pt       2.80721382       6.48298279       8.29215327        2       0.00000816       0.00000471      -0.00098725       0.00000000
Pt       5.61442795       6.48298279       8.29215327        2      -0.00000816       0.00000471      -0.00098725       0.00000000
Pt       8.42164176       6.48298294       8.29215317        2       0.00000000       0.00001107      -0.00098440       0.00000000
Pt       0.00000000      -0.00000000      10.59596313        1       0.00000000      -0.00000000       0.00541702       0.00000000
Pt       2.80721388      -0.00000023      10.59596264        1       0.00000523      -0.00000237       0.00545310       0.00000000
Pt       5.61442789      -0.00000023      10.59596264        1      -0.00000523      -0.00000237       0.00545310       0.00000000
Pt       1.40360674       2.43111865      10.59596264        1       0.00000056       0.00000572       0.00545310       0.00000000
Pt       4.21082088       2.43111857      10.59596385        1      -0.00000000      -0.00000000       0.00543307       0.00000000
Pt       7.01803502       2.43111865      10.59596264        1      -0.00000056       0.00000572       0.00545310       0.00000000
Pt       2.80721374       4.86223729      10.59596264        1      -0.00000467      -0.00000334       0.00545310       0.00000000
Pt       5.61442802       4.86223729      10.59596264        1       0.00000467      -0.00000334       0.00545310       0.00000000
Pt       8.42164176       4.86223714      10.59596217        1      -0.00000000      -0.00000000       0.00548334       0.00000000
