
  ___ ___ ___ _ _ _  
 |   |   |_  | | | | 
 | | | | | . | | | | 
 |__ |  _|___|_____|  22.8.0
 |___|_|             

User:   gotols@vera56-4
Date:   Fri Feb 17 09:36:47 2023
Arch:   x86_64
Pid:    241660
CWD:    /cephyr/users/gotols/Vera/TIF320-Computational-materials-and-molecular-physics-Assignments
Python: 3.10.4
gpaw:   /apps/Arch/software/GPAW/22.8.0-foss-2022a/lib/python3.10/site-packages/gpaw
_gpaw:  /apps/Arch/software/GPAW/22.8.0-foss-2022a/lib/python3.10/site-packages/
        _gpaw.cpython-310-x86_64-linux-gnu.so
ase:    /apps/Arch/software/ASE/3.22.1-foss-2022a/lib/python3.10/site-packages/ase (version 3.22.1)
numpy:  /apps/Arch/software/SciPy-bundle/2022.05-foss-2022a/lib/python3.10/site-packages/numpy (version 1.22.3)
scipy:  /apps/Arch/software/SciPy-bundle/2022.05-foss-2022a/lib/python3.10/site-packages/scipy (version 1.8.1)
libxc:  5.2.3
units:  Angstrom and eV
cores: 16
OpenMP: False
OMP_NUM_THREADS: 1

Input parameters:
  kpts: [4 4 1]
  mode: {ecut: 450.00000000000006,
         name: pw}

System changes: positions, numbers, cell, pbc, initial_charges, initial_magmoms 

Initialize ...

species:
  Pt:
    name: Platinum
    id: 5a6399afde4becbffda6f57f3efd9534
    Z: 78.0
    valence: 16
    core: 62
    charge: 0.0
    file: /apps/Common/software/GPAW-setups/0.9.20000/Pt.LDA.gz
    compensation charges: {type: gauss,
                           rc: 0.41,
                           lmax: 2}
    cutoffs: {filter: 2.26,
              core: 2.26}
    valence states:
      #              energy  rcut
      - 6s(1.00)    -5.930   1.307
      - 5p(6.00)   -56.318   1.371
      - 6p(0.00)    -0.962   1.371
      - 5d(9.00)    -6.387   1.307
      -  s          21.281   1.307
      -  d          20.825   1.307
  
    # Using partial waves for Pt as LCAO basis

Reference energy: -13502612.219457  # eV

Spin-paired calculation

Convergence criteria:
 Maximum [total energy] change in last 3 cyles: 0.0005 eV / electron
 Maximum integral of absolute [dens]ity change: 0.0001 electrons / valence electron
 Maximum integral of absolute [eigenst]ate change: 4e-08 eV^2 / valence electron
 Maximum number of scf [iter]ations: 333
 (Square brackets indicate name in SCF output, whereas a 'c' in
 the SCF output indicates the quantity has converged.)

Symmetries present (total): 6

  ( 1  0  0)  ( 1 -1  0)  ( 0  1  0)  ( 0 -1  0)  (-1  1  0)  (-1  0  0)
  ( 0  1  0)  ( 0 -1  0)  ( 1  0  0)  ( 1 -1  0)  (-1  0  0)  (-1  1  0)
  ( 0  0  1)  ( 0  0  1)  ( 0  0  1)  ( 0  0  1)  ( 0  0  1)  ( 0  0  1)
Note: your k-points are not as symmetric as your crystal!

16 k-points: 4 x 4 x 1 Monkhorst-Pack grid
6 k-points in the irreducible part of the Brillouin zone
       k-points in crystal coordinates                weights
   0:     0.12500000   -0.12500000    0.00000000          2/16
   1:     0.12500000    0.12500000    0.00000000          2/16
   2:     0.37500000   -0.37500000    0.00000000          2/16
   3:     0.37500000   -0.12500000    0.00000000          4/16
   4:     0.37500000    0.12500000    0.00000000          4/16
   5:     0.37500000    0.37500000    0.00000000          2/16

Wave functions: Plane wave expansion
  Cutoff energy: 450.000 eV
  Number of coefficients (min, max): 22059, 22107
  Pulay-stress correction: 0.000000 eV/Ang^3 (de/decut=0.000000)
  Using FFTW library
  ScaLapack parameters: grid=1x1, blocksize=None
  Wavefunction extrapolation:
    Improved wavefunction reuse through dual PAW basis 

Occupation numbers: Fermi-Dirac:
  width: 0.1000  # eV
 

Eigensolver
   Davidson(niter=2) 

Densities:
  Coarse grid: 42*42*84 grid
  Fine grid: 84*84*168 grid
  Total Charge: 0.000000 

Density mixing:
  Method: separate
  Backend: pulay
  Linear mixing parameter: 0.05
  old densities: 5
  Damping of long wavelength oscillations: 50 

Hamiltonian:
  XC and Coulomb potentials evaluated on a 84*84*168 grid
  Using the LDA Exchange-Correlation functional
  External potential:
    NoExternalPotential
 

Memory estimate:
  Process memory now: 284.89 MiB
  Calculator: 386.70 MiB
    Density: 8.00 MiB
      Arrays: 3.67 MiB
      Localized functions: 2.92 MiB
      Mixer: 1.41 MiB
    Hamiltonian: 2.46 MiB
      Arrays: 2.40 MiB
      XC: 0.00 MiB
      Poisson: 0.00 MiB
      vbar: 0.06 MiB
    Wavefunctions: 376.23 MiB
      Arrays psit_nG: 267.16 MiB
      Eigensolver: 101.38 MiB
      Projections: 0.73 MiB
      Projectors: 0.95 MiB
      PW-descriptor: 6.00 MiB

Total number of cores used: 16
Parallelization over k-points: 2
Domain decomposition: 2 x 2 x 2

Number of atoms: 27
Number of atomic orbitals: 324
Number of bands in calculation: 264
Number of valence electrons: 432
Bands to converge: occupied

... initialized

Initializing position-dependent things.

Density initialized from atomic densities
Creating initial wave functions:
  264 bands from LCAO basis set

                                            
                                            
                                            
                                            
                                            
                 Pt     Pt     Pt           
            Pt     Pt     Pt                
       Pt     Pt  Pt Pt  Pt    Pt           
             Pt     Pt     Pt               
        Pt     Pt     Pt                    
                     Pt     Pt    Pt        
                Pt     Pt     Pt            
                                            
           Pt     Pt     Pt                 
                                            
                                            
                                            
                                            

Positions:
   0 Pt     1.403607    0.810373    6.000000    ( 0.0000,  0.0000,  0.0000)
   1 Pt     4.210821    0.810373    6.000000    ( 0.0000,  0.0000,  0.0000)
   2 Pt     7.018035    0.810373    6.000000    ( 0.0000,  0.0000,  0.0000)
   3 Pt     2.807214    3.241491    6.000000    ( 0.0000,  0.0000,  0.0000)
   4 Pt     5.614428    3.241491    6.000000    ( 0.0000,  0.0000,  0.0000)
   5 Pt     8.421642    3.241491    6.000000    ( 0.0000,  0.0000,  0.0000)
   6 Pt     4.210821    5.672610    6.000000    ( 0.0000,  0.0000,  0.0000)
   7 Pt     7.018035    5.672610    6.000000    ( 0.0000,  0.0000,  0.0000)
   8 Pt     9.825249    5.672610    6.000000    ( 0.0000,  0.0000,  0.0000)
   9 Pt    -0.000000    1.620746    8.292081    ( 0.0000,  0.0000,  0.0000)
  10 Pt     2.807214    1.620746    8.292081    ( 0.0000,  0.0000,  0.0000)
  11 Pt     5.614428    1.620746    8.292081    ( 0.0000,  0.0000,  0.0000)
  12 Pt     1.403607    4.051864    8.292081    ( 0.0000,  0.0000,  0.0000)
  13 Pt     4.210821    4.051864    8.292081    ( 0.0000,  0.0000,  0.0000)
  14 Pt     7.018035    4.051864    8.292081    ( 0.0000,  0.0000,  0.0000)
  15 Pt     2.807214    6.482983    8.292081    ( 0.0000,  0.0000,  0.0000)
  16 Pt     5.614428    6.482983    8.292081    ( 0.0000,  0.0000,  0.0000)
  17 Pt     8.421642    6.482983    8.292081    ( 0.0000,  0.0000,  0.0000)
  18 Pt     0.000000    0.000000   10.584161    ( 0.0000,  0.0000,  0.0000)
  19 Pt     2.807214    0.000000   10.584161    ( 0.0000,  0.0000,  0.0000)
  20 Pt     5.614428    0.000000   10.584161    ( 0.0000,  0.0000,  0.0000)
  21 Pt     1.403607    2.431119   10.584161    ( 0.0000,  0.0000,  0.0000)
  22 Pt     4.210821    2.431119   10.584161    ( 0.0000,  0.0000,  0.0000)
  23 Pt     7.018035    2.431119   10.584161    ( 0.0000,  0.0000,  0.0000)
  24 Pt     2.807214    4.862237   10.584161    ( 0.0000,  0.0000,  0.0000)
  25 Pt     5.614428    4.862237   10.584161    ( 0.0000,  0.0000,  0.0000)
  26 Pt     8.421642    4.862237   10.584161    ( 0.0000,  0.0000,  0.0000)

Unit cell:
           periodic     x           y           z      points  spacing
  1. axis:    yes    8.421642    0.000000    0.000000    42     0.1737
  2. axis:    yes    4.210821    7.293356    0.000000    42     0.1737
  3. axis:    no     0.000000    0.000000   16.584161    84     0.1974

  Lengths:   8.421642   8.421642  16.584161
  Angles:   90.000000  90.000000  60.000000

Effective grid spacing dv^(1/3) = 0.1901

     iter     time        total  log10-change:
                         energy  eigst   dens
iter:   1 09:37:09  -208.958684
iter:   2 09:37:17  -206.097624  -1.19  -1.39
iter:   3 09:37:24  -200.492166  -1.69  -1.44
iter:   4 09:37:32  -195.784452  -1.31  -1.58
iter:   5 09:37:39  -195.963605  -2.19  -2.00
iter:   6 09:37:46  -195.481003  -2.76  -2.09
iter:   7 09:37:54  -195.352817  -3.19  -2.26
iter:   8 09:38:01  -195.334269c -3.87  -2.32
iter:   9 09:38:08  -195.229862c -3.09  -2.35
iter:  10 09:38:16  -195.233046c -3.64  -2.99
iter:  11 09:38:23  -195.230385c -4.51  -3.11
iter:  12 09:38:30  -195.231402c -4.87  -3.17
iter:  13 09:38:38  -195.232872c -5.15  -3.13
iter:  14 09:38:45  -195.231901c -5.13  -3.08
iter:  15 09:38:52  -195.231179c -5.24  -3.10
iter:  16 09:39:00  -195.229220c -4.83  -3.12
iter:  17 09:39:07  -195.229637c -6.30  -3.21
iter:  18 09:39:14  -195.234230c -5.04  -3.24
iter:  19 09:39:22  -195.234523c -5.31  -3.45
iter:  20 09:39:29  -195.233989c -5.59  -3.51
iter:  21 09:39:36  -195.233824c -6.67  -3.70
iter:  22 09:39:44  -195.233446c -5.78  -3.78
iter:  23 09:39:51  -195.233005c -6.03  -3.93
iter:  24 09:39:58  -195.232810c -6.49  -3.93
iter:  25 09:40:06  -195.232695c -6.63  -4.13c
iter:  26 09:40:13  -195.232722c -6.76  -4.21c
iter:  27 09:40:20  -195.232660c -6.91  -4.21c
iter:  28 09:40:28  -195.232683c -7.81c -4.86c

Converged after 28 iterations.

Dipole moment: (-0.204213, -0.117903, -0.000007) |e|*Ang

Energy contributions relative to reference atoms: (reference = -13502612.219457)

Kinetic:       -418.303295
Potential:     +339.717356
External:        +0.000000
XC:             -99.668429
Entropy (-ST):   -1.851368
Local:          -16.052632
--------------------------
Free energy:   -196.158367
Extrapolated:  -195.232683

Showing only first 2 kpts
 Kpt  Band  Eigenvalues  Occupancy
  0   214      0.90348    1.32202
  0   215      0.90350    1.32193
  0   216      0.91505    1.26920
  0   217      0.97189    0.99182

  1   214      0.73192    1.83110
  1   215      0.74813    1.80428
  1   216      0.79957    1.69287
  1   217      0.79957    1.69286


Fermi level: 0.97026

No gap

Forces in eV/Ang:
  0 Pt    0.00001    0.00000    0.61503
  1 Pt    0.00000   -0.00000    0.61504
  2 Pt   -0.00001    0.00000    0.61503
  3 Pt   -0.00000    0.00000    0.61504
  4 Pt    0.00000    0.00000    0.61504
  5 Pt   -0.00000   -0.00001    0.61503
  6 Pt    0.00000   -0.00001    0.61503
  7 Pt   -0.00001    0.00001    0.61503
  8 Pt    0.00001    0.00001    0.61503
  9 Pt    0.00000    0.00000    0.00018
 10 Pt   -0.00000   -0.00000    0.00018
 11 Pt    0.00000   -0.00000    0.00018
 12 Pt    0.00001   -0.00000    0.00018
 13 Pt    0.00000    0.00000    0.00018
 14 Pt   -0.00001   -0.00000    0.00018
 15 Pt   -0.00000   -0.00000    0.00018
 16 Pt    0.00000   -0.00000    0.00018
 17 Pt    0.00000    0.00001    0.00018
 18 Pt    0.00000   -0.00000   -0.61480
 19 Pt    0.00000    0.00000   -0.61480
 20 Pt   -0.00000    0.00000   -0.61480
 21 Pt    0.00000   -0.00000   -0.61480
 22 Pt    0.00000   -0.00000   -0.61480
 23 Pt   -0.00000   -0.00000   -0.61480
 24 Pt    0.00000   -0.00000   -0.61480
 25 Pt   -0.00000   -0.00000   -0.61480
 26 Pt    0.00000    0.00000   -0.61480

System changes: positions 

Initializing position-dependent things.

Density initialized from wave functions
                                            
                                            
                                            
                                            
                 Pt     Pt     Pt           
                                            
            Pt    PPt    PPt   Pt           
       Pt     Pt     Pt                     
             Pt     Pt     Pt               
        Pt     Pt    PPt    Pt    Pt        
                                            
                Pt     Pt     Pt            
           Pt     Pt     Pt                 
                                            
                                            
                                            
                                            

Positions:
   0 Pt     1.403608    0.810373    6.094299    ( 0.0000,  0.0000,  0.0000)
   1 Pt     4.210821    0.810373    6.094299    ( 0.0000,  0.0000,  0.0000)
   2 Pt     7.018034    0.810373    6.094299    ( 0.0000,  0.0000,  0.0000)
   3 Pt     2.807214    3.241492    6.094299    ( 0.0000,  0.0000,  0.0000)
   4 Pt     5.614428    3.241492    6.094299    ( 0.0000,  0.0000,  0.0000)
   5 Pt     8.421642    3.241490    6.094299    ( 0.0000,  0.0000,  0.0000)
   6 Pt     4.210821    5.672609    6.094299    ( 0.0000,  0.0000,  0.0000)
   7 Pt     7.018033    5.672611    6.094299    ( 0.0000,  0.0000,  0.0000)
   8 Pt     9.825250    5.672611    6.094299    ( 0.0000,  0.0000,  0.0000)
   9 Pt    -0.000000    1.620746    8.292108    ( 0.0000,  0.0000,  0.0000)
  10 Pt     2.807214    1.620746    8.292108    ( 0.0000,  0.0000,  0.0000)
  11 Pt     5.614428    1.620746    8.292108    ( 0.0000,  0.0000,  0.0000)
  12 Pt     1.403608    4.051864    8.292108    ( 0.0000,  0.0000,  0.0000)
  13 Pt     4.210821    4.051865    8.292108    ( 0.0000,  0.0000,  0.0000)
  14 Pt     7.018034    4.051864    8.292108    ( 0.0000,  0.0000,  0.0000)
  15 Pt     2.807214    6.482983    8.292108    ( 0.0000,  0.0000,  0.0000)
  16 Pt     5.614428    6.482983    8.292108    ( 0.0000,  0.0000,  0.0000)
  17 Pt     8.421642    6.482984    8.292108    ( 0.0000,  0.0000,  0.0000)
  18 Pt     0.000000   -0.000000   10.489898    ( 0.0000,  0.0000,  0.0000)
  19 Pt     2.807214    0.000000   10.489898    ( 0.0000,  0.0000,  0.0000)
  20 Pt     5.614428    0.000000   10.489898    ( 0.0000,  0.0000,  0.0000)
  21 Pt     1.403607    2.431118   10.489898    ( 0.0000,  0.0000,  0.0000)
  22 Pt     4.210821    2.431119   10.489898    ( 0.0000,  0.0000,  0.0000)
  23 Pt     7.018034    2.431118   10.489898    ( 0.0000,  0.0000,  0.0000)
  24 Pt     2.807214    4.862237   10.489898    ( 0.0000,  0.0000,  0.0000)
  25 Pt     5.614427    4.862237   10.489898    ( 0.0000,  0.0000,  0.0000)
  26 Pt     8.421642    4.862237   10.489898    ( 0.0000,  0.0000,  0.0000)

Unit cell:
           periodic     x           y           z      points  spacing
  1. axis:    yes    8.421642    0.000000    0.000000    42     0.1737
  2. axis:    yes    4.210821    7.293356    0.000000    42     0.1737
  3. axis:    no     0.000000    0.000000   16.584161    84     0.1974

  Lengths:   8.421642   8.421642  16.584161
  Angles:   90.000000  90.000000  60.000000

Effective grid spacing dv^(1/3) = 0.1901

     iter     time        total  log10-change:
                         energy  eigst   dens
iter:   1 09:40:37  -212.861867  -0.74
iter:   2 09:40:45  -196.749972  -1.44  -1.41
iter:   3 09:40:52  -196.155021  -2.13  -1.93
iter:   4 09:40:59  -195.956143  -2.88  -2.18
iter:   5 09:41:07  -195.864720  -2.94  -2.29
iter:   6 09:41:14  -195.850954c -3.22  -2.48
iter:   7 09:41:21  -195.843952c -4.06  -2.81
iter:   8 09:41:29  -195.846266c -4.24  -2.99
iter:   9 09:41:36  -195.845968c -4.89  -3.09
iter:  10 09:41:43  -195.839147c -4.84  -3.12
iter:  11 09:41:51  -195.838365c -5.16  -3.45
iter:  12 09:41:58  -195.838133c -5.67  -3.74
iter:  13 09:42:05  -195.837882c -6.20  -3.88
iter:  14 09:42:13  -195.837739c -6.24  -3.91
iter:  15 09:42:20  -195.837775c -6.44  -4.10c
iter:  16 09:42:27  -195.837661c -6.76  -4.10c
iter:  17 09:42:35  -195.837715c -7.28  -4.41c
iter:  18 09:42:42  -195.837930c -7.30  -4.48c
iter:  19 09:42:49  -195.837929c -8.26c -4.70c

Converged after 19 iterations.

Dipole moment: (-0.281050, -0.162264, -0.000050) |e|*Ang

Energy contributions relative to reference atoms: (reference = -13502612.219457)

Kinetic:       -326.365031
Potential:     +261.078300
External:        +0.000000
XC:            -113.265324
Entropy (-ST):   -1.843841
Local:          -16.363953
--------------------------
Free energy:   -196.759849
Extrapolated:  -195.837929

Showing only first 2 kpts
 Kpt  Band  Eigenvalues  Occupancy
  0   214      0.94545    1.47571
  0   215      0.94547    1.47566
  0   216      0.99877    1.24569
  0   217      1.09407    0.77811

  1   214      0.82940    1.79966
  1   215      0.82942    1.79963
  1   216      0.83541    1.78857
  1   217      0.83543    1.78853


Fermi level: 1.04894

No gap

Forces in eV/Ang:
  0 Pt   -0.00001   -0.00001    0.06575
  1 Pt    0.00000    0.00000    0.06575
  2 Pt    0.00001   -0.00001    0.06575
  3 Pt    0.00000   -0.00000    0.06575
  4 Pt   -0.00000   -0.00000    0.06575
  5 Pt    0.00000    0.00001    0.06576
  6 Pt    0.00000    0.00001    0.06575
  7 Pt    0.00001   -0.00001    0.06576
  8 Pt   -0.00001   -0.00001    0.06576
  9 Pt    0.00000   -0.00001   -0.00012
 10 Pt    0.00000    0.00000   -0.00012
 11 Pt   -0.00000    0.00000   -0.00012
 12 Pt   -0.00002    0.00001   -0.00012
 13 Pt    0.00000   -0.00000   -0.00012
 14 Pt    0.00002    0.00001   -0.00012
 15 Pt    0.00001    0.00000   -0.00012
 16 Pt   -0.00001    0.00000   -0.00012
 17 Pt    0.00000   -0.00002   -0.00012
 18 Pt   -0.00000    0.00000   -0.06540
 19 Pt   -0.00000   -0.00000   -0.06541
 20 Pt    0.00000   -0.00000   -0.06541
 21 Pt   -0.00000    0.00000   -0.06541
 22 Pt    0.00000   -0.00000   -0.06540
 23 Pt    0.00000    0.00000   -0.06541
 24 Pt   -0.00000    0.00000   -0.06541
 25 Pt    0.00000    0.00000   -0.06541
 26 Pt    0.00000   -0.00000   -0.06541

System changes: positions 

Initializing position-dependent things.

Density initialized from wave functions
                                            
                                            
                                            
                                            
                 Pt     Pt     Pt           
                                            
            Pt    PPt    PPt   Pt           
       Pt     Pt     Pt                     
             Pt     Pt     Pt               
        Pt     Pt    PPt    Pt    Pt        
                                            
                Pt     Pt     Pt            
           Pt     Pt     Pt                 
                                            
                                            
                                            
                                            

Positions:
   0 Pt     1.403605    0.810372    6.109629    ( 0.0000,  0.0000,  0.0000)
   1 Pt     4.210821    0.810373    6.109628    ( 0.0000,  0.0000,  0.0000)
   2 Pt     7.018036    0.810372    6.109629    ( 0.0000,  0.0000,  0.0000)
   3 Pt     2.807214    3.241491    6.109628    ( 0.0000,  0.0000,  0.0000)
   4 Pt     5.614427    3.241491    6.109628    ( 0.0000,  0.0000,  0.0000)
   5 Pt     8.421642    3.241494    6.109631    ( 0.0000,  0.0000,  0.0000)
   6 Pt     4.210821    5.672612    6.109629    ( 0.0000,  0.0000,  0.0000)
   7 Pt     7.018037    5.672609    6.109631    ( 0.0000,  0.0000,  0.0000)
   8 Pt     9.825247    5.672609    6.109631    ( 0.0000,  0.0000,  0.0000)
   9 Pt    -0.000000    1.620744    8.292073    ( 0.0000,  0.0000,  0.0000)
  10 Pt     2.807215    1.620746    8.292072    ( 0.0000,  0.0000,  0.0000)
  11 Pt     5.614427    1.620746    8.292072    ( 0.0000,  0.0000,  0.0000)
  12 Pt     1.403603    4.051866    8.292072    ( 0.0000,  0.0000,  0.0000)
  13 Pt     4.210821    4.051864    8.292072    ( 0.0000,  0.0000,  0.0000)
  14 Pt     7.018039    4.051866    8.292072    ( 0.0000,  0.0000,  0.0000)
  15 Pt     2.807215    6.482984    8.292073    ( 0.0000,  0.0000,  0.0000)
  16 Pt     5.614427    6.482984    8.292073    ( 0.0000,  0.0000,  0.0000)
  17 Pt     8.421642    6.482979    8.292072    ( 0.0000,  0.0000,  0.0000)
  18 Pt    -0.000000   -0.000000   10.474664    ( 0.0000,  0.0000,  0.0000)
  19 Pt     2.807214   -0.000001   10.474663    ( 0.0000,  0.0000,  0.0000)
  20 Pt     5.614428   -0.000001   10.474663    ( 0.0000,  0.0000,  0.0000)
  21 Pt     1.403606    2.431119   10.474663    ( 0.0000,  0.0000,  0.0000)
  22 Pt     4.210821    2.431119   10.474665    ( 0.0000,  0.0000,  0.0000)
  23 Pt     7.018036    2.431119   10.474663    ( 0.0000,  0.0000,  0.0000)
  24 Pt     2.807213    4.862238   10.474663    ( 0.0000,  0.0000,  0.0000)
  25 Pt     5.614428    4.862238   10.474663    ( 0.0000,  0.0000,  0.0000)
  26 Pt     8.421642    4.862237   10.474661    ( 0.0000,  0.0000,  0.0000)

Unit cell:
           periodic     x           y           z      points  spacing
  1. axis:    yes    8.421642    0.000000    0.000000    42     0.1737
  2. axis:    yes    4.210821    7.293356    0.000000    42     0.1737
  3. axis:    no     0.000000    0.000000   16.584161    84     0.1974

  Lengths:   8.421642   8.421642  16.584161
  Angles:   90.000000  90.000000  60.000000

Effective grid spacing dv^(1/3) = 0.1901

     iter     time        total  log10-change:
                         energy  eigst   dens
iter:   1 09:42:59  -196.443329  -2.26
iter:   2 09:43:06  -195.879929  -2.92  -2.16
iter:   3 09:43:14  -195.856951  -3.69  -2.70
iter:   4 09:43:21  -195.855429c -4.43  -2.90
iter:   5 09:43:28  -195.846648c -4.44  -2.93
iter:   6 09:43:36  -195.844315c -4.36  -3.14
iter:   7 09:43:43  -195.845777c -5.15  -3.31
iter:   8 09:43:50  -195.846508c -5.70  -3.79
iter:   9 09:43:58  -195.846262c -6.46  -3.85
iter:  10 09:44:05  -195.845760c -6.23  -3.95
iter:  11 09:44:12  -195.845594c -6.55  -4.06c
iter:  12 09:44:20  -195.845620c -6.90  -4.30c
iter:  13 09:44:27  -195.845582c -7.87c -4.52c

Converged after 13 iterations.

Dipole moment: (-0.294477, -0.170017, 0.000081) |e|*Ang

Energy contributions relative to reference atoms: (reference = -13502612.219457)

Kinetic:       -309.794165
Potential:     +246.951720
External:        +0.000000
XC:            -115.654489
Entropy (-ST):   -1.834904
Local:          -16.431197
--------------------------
Free energy:   -196.763034
Extrapolated:  -195.845582

Showing only first 2 kpts
 Kpt  Band  Eigenvalues  Occupancy
  0   214      0.94892    1.50617
  0   215      0.94893    1.50613
  0   216      1.00890    1.25213
  0   217      1.10471    0.78219

  1   214      0.83978    1.80167
  1   215      0.83980    1.80163
  1   216      0.84406    1.79389
  1   217      0.84408    1.79386


Fermi level: 1.06043

No gap

Forces in eV/Ang:
  0 Pt    0.00001    0.00001   -0.04335
  1 Pt   -0.00000   -0.00000   -0.04334
  2 Pt   -0.00001    0.00001   -0.04335
  3 Pt   -0.00000    0.00000   -0.04334
  4 Pt    0.00000    0.00000   -0.04334
  5 Pt   -0.00000   -0.00002   -0.04337
  6 Pt   -0.00000   -0.00002   -0.04335
  7 Pt   -0.00002    0.00001   -0.04337
  8 Pt    0.00002    0.00001   -0.04337
  9 Pt    0.00000    0.00001    0.00042
 10 Pt   -0.00001   -0.00000    0.00042
 11 Pt    0.00001   -0.00000    0.00042
 12 Pt    0.00005   -0.00003    0.00043
 13 Pt    0.00000    0.00001    0.00042
 14 Pt   -0.00005   -0.00003    0.00043
 15 Pt   -0.00001   -0.00001    0.00042
 16 Pt    0.00001   -0.00001    0.00042
 17 Pt   -0.00000    0.00006    0.00043
 18 Pt    0.00000   -0.00000    0.04130
 19 Pt    0.00000    0.00001    0.04128
 20 Pt   -0.00000    0.00001    0.04128
 21 Pt    0.00001   -0.00000    0.04128
 22 Pt    0.00000   -0.00000    0.04129
 23 Pt   -0.00001   -0.00000    0.04128
 24 Pt    0.00000   -0.00000    0.04128
 25 Pt   -0.00000   -0.00000    0.04128
 26 Pt   -0.00000   -0.00000    0.04133

System changes: positions 

Initializing position-dependent things.

Density initialized from wave functions
                                            
                                            
                                            
                                            
                 Pt     Pt     Pt           
                                            
            Pt    PPt    PPt   Pt           
       Pt     Pt     Pt                     
             Pt     Pt     Pt               
        Pt     Pt    PPt    Pt    Pt        
                                            
                Pt     Pt     Pt            
           Pt     Pt     Pt                 
                                            
                                            
                                            
                                            

Positions:
   0 Pt     1.403607    0.810373    6.103978    ( 0.0000,  0.0000,  0.0000)
   1 Pt     4.210821    0.810373    6.103980    ( 0.0000,  0.0000,  0.0000)
   2 Pt     7.018035    0.810373    6.103978    ( 0.0000,  0.0000,  0.0000)
   3 Pt     2.807214    3.241491    6.103980    ( 0.0000,  0.0000,  0.0000)
   4 Pt     5.614428    3.241491    6.103980    ( 0.0000,  0.0000,  0.0000)
   5 Pt     8.421642    3.241491    6.103978    ( 0.0000,  0.0000,  0.0000)
   6 Pt     4.210821    5.672610    6.103978    ( 0.0000,  0.0000,  0.0000)
   7 Pt     7.018034    5.672610    6.103978    ( 0.0000,  0.0000,  0.0000)
   8 Pt     9.825249    5.672610    6.103978    ( 0.0000,  0.0000,  0.0000)
   9 Pt    -0.000000    1.620746    8.292131    ( 0.0000,  0.0000,  0.0000)
  10 Pt     2.807214    1.620746    8.292131    ( 0.0000,  0.0000,  0.0000)
  11 Pt     5.614428    1.620746    8.292131    ( 0.0000,  0.0000,  0.0000)
  12 Pt     1.403610    4.051862    8.292132    ( 0.0000,  0.0000,  0.0000)
  13 Pt     4.210821    4.051864    8.292131    ( 0.0000,  0.0000,  0.0000)
  14 Pt     7.018032    4.051862    8.292132    ( 0.0000,  0.0000,  0.0000)
  15 Pt     2.807214    6.482983    8.292131    ( 0.0000,  0.0000,  0.0000)
  16 Pt     5.614428    6.482983    8.292131    ( 0.0000,  0.0000,  0.0000)
  17 Pt     8.421642    6.482987    8.292132    ( 0.0000,  0.0000,  0.0000)
  18 Pt    -0.000000   -0.000000   10.480013    ( 0.0000,  0.0000,  0.0000)
  19 Pt     2.807214   -0.000000   10.480010    ( 0.0000,  0.0000,  0.0000)
  20 Pt     5.614428   -0.000000   10.480010    ( 0.0000,  0.0000,  0.0000)
  21 Pt     1.403607    2.431119   10.480010    ( 0.0000,  0.0000,  0.0000)
  22 Pt     4.210821    2.431119   10.480013    ( 0.0000,  0.0000,  0.0000)
  23 Pt     7.018035    2.431119   10.480010    ( 0.0000,  0.0000,  0.0000)
  24 Pt     2.807214    4.862237   10.480010    ( 0.0000,  0.0000,  0.0000)
  25 Pt     5.614428    4.862237   10.480010    ( 0.0000,  0.0000,  0.0000)
  26 Pt     8.421642    4.862237   10.480015    ( 0.0000,  0.0000,  0.0000)

Unit cell:
           periodic     x           y           z      points  spacing
  1. axis:    yes    8.421642    0.000000    0.000000    42     0.1737
  2. axis:    yes    4.210821    7.293356    0.000000    42     0.1737
  3. axis:    no     0.000000    0.000000   16.584161    84     0.1974

  Lengths:   8.421642   8.421642  16.584161
  Angles:   90.000000  90.000000  60.000000

Effective grid spacing dv^(1/3) = 0.1901

     iter     time        total  log10-change:
                         energy  eigst   dens
iter:   1 09:44:37  -195.897955  -3.14
iter:   2 09:44:44  -195.847692  -3.82  -2.61
iter:   3 09:44:51  -195.852364c -4.35  -3.08
iter:   4 09:44:59  -195.847707c -5.20  -3.13
iter:   5 09:45:06  -195.846394c -5.27  -3.40
iter:   6 09:45:13  -195.847961c -5.10  -3.56
iter:   7 09:45:21  -195.846296c -6.00  -3.69
iter:   8 09:45:28  -195.845732c -6.29  -4.10c
iter:   9 09:45:35  -195.845933c -7.12  -4.29c
iter:  10 09:45:43  -195.846141c -6.96  -4.38c
iter:  11 09:45:50  -195.846034c -7.74c -4.63c

Converged after 11 iterations.

Dipole moment: (-0.289715, -0.167267, -0.000034) |e|*Ang

Energy contributions relative to reference atoms: (reference = -13502612.219457)

Kinetic:       -315.717350
Potential:     +252.023507
External:        +0.000000
XC:            -114.816487
Entropy (-ST):   -1.838551
Local:          -16.416428
--------------------------
Free energy:   -196.765309
Extrapolated:  -195.846034

Showing only first 2 kpts
 Kpt  Band  Eigenvalues  Occupancy
  0   214      0.94847    1.49535
  0   215      0.94848    1.49530
  0   216      1.00623    1.24896
  0   217      1.10180    0.78012

  1   214      0.83882    1.79738
  1   215      0.83884    1.79734
  1   216      0.83954    1.79607
  1   217      0.83955    1.79604


Fermi level: 1.05709

No gap

Forces in eV/Ang:
  0 Pt   -0.00001   -0.00001   -0.00031
  1 Pt    0.00000    0.00002   -0.00031
  2 Pt    0.00001   -0.00001   -0.00031
  3 Pt    0.00002   -0.00001   -0.00031
  4 Pt   -0.00002   -0.00001   -0.00031
  5 Pt    0.00000   -0.00002   -0.00023
  6 Pt   -0.00000    0.00001   -0.00031
  7 Pt   -0.00001    0.00001   -0.00023
  8 Pt    0.00001    0.00001   -0.00023
  9 Pt   -0.00000   -0.00001   -0.00114
 10 Pt    0.00001    0.00001   -0.00112
 11 Pt   -0.00001    0.00001   -0.00112
 12 Pt   -0.00007    0.00004   -0.00114
 13 Pt   -0.00000   -0.00002   -0.00112
 14 Pt    0.00007    0.00004   -0.00114
 15 Pt    0.00001    0.00001   -0.00114
 16 Pt   -0.00001    0.00001   -0.00114
 17 Pt    0.00000   -0.00008   -0.00114
 18 Pt    0.00000   -0.00000    0.00184
 19 Pt    0.00000    0.00003    0.00181
 20 Pt   -0.00000    0.00003    0.00181
 21 Pt    0.00003   -0.00002    0.00181
 22 Pt    0.00000   -0.00000    0.00191
 23 Pt   -0.00003   -0.00002    0.00181
 24 Pt    0.00003   -0.00002    0.00181
 25 Pt   -0.00003   -0.00002    0.00181
 26 Pt    0.00000   -0.00000    0.00176

Writing to Assignment 4/output_T3/Pt_111-surface_relaxed.gpaw (mode='')

Timing:                                      incl.     excl.
-------------------------------------------------------------------
Density initialized from wave functions:     1.390     1.225   0.2% |
 Symmetrize density:                         0.166     0.166   0.0% |
Forces:                                      5.180     5.180   0.9% |
Hamiltonian:                                 0.680     0.014   0.0% |
 Atomic:                                     0.138     0.030   0.0% |
  XC Correction:                             0.108     0.108   0.0% |
 Calculate atomic Hamiltonians:              0.293     0.293   0.1% |
 Communicate:                                0.080     0.080   0.0% |
 Initialize Hamiltonian:                     0.000     0.000   0.0% |
 Poisson:                                    0.003     0.003   0.0% |
 XC 3D grid:                                 0.152     0.152   0.0% |
LCAO initialization:                        12.116     0.091   0.0% |
 LCAO eigensolver:                           0.829     0.001   0.0% |
  Calculate projections:                     0.006     0.006   0.0% |
  DenseAtomicCorrection:                     0.007     0.007   0.0% |
  Distribute overlap matrix:                 0.095     0.095   0.0% |
  Orbital Layouts:                           0.234     0.234   0.0% |
  Potential matrix:                          0.470     0.470   0.1% |
  Sum over cells:                            0.015     0.015   0.0% |
 LCAO to grid:                              10.863    10.863   2.0% ||
 Set positions (LCAO WFS):                   0.334     0.122   0.0% |
  Basic WFS set positions:                   0.004     0.004   0.0% |
  Basis functions set positions:             0.000     0.000   0.0% |
  P tci:                                     0.133     0.133   0.0% |
  ST tci:                                    0.045     0.045   0.0% |
  mktci:                                     0.030     0.030   0.0% |
PWDescriptor:                                0.319     0.319   0.1% |
Redistribute:                                0.040     0.040   0.0% |
SCF-cycle:                                 520.696     0.371   0.1% |
 Davidson:                                 475.791    69.901  12.8% |----|
  Apply H:                                  41.642    40.386   7.4% |--|
   HMM T:                                    1.256     1.256   0.2% |
  Subspace diag:                            74.698     0.030   0.0% |
   calc_h_matrix:                           50.955     9.366   1.7% ||
    Apply H:                                41.588    40.320   7.4% |--|
     HMM T:                                  1.268     1.268   0.2% |
   diagonalize:                              7.725     7.725   1.4% ||
   rotate_psi:                              15.989    15.989   2.9% ||
  calc. matrices:                          143.728    60.906  11.2% |---|
   Apply H:                                 82.823    80.334  14.7% |-----|
    HMM T:                                   2.489     2.489   0.5% |
  diagonalize:                             113.958   113.958  20.9% |-------|
  rotate_psi:                               31.863    31.863   5.8% |-|
 Density:                                   31.569     0.002   0.0% |
  Atomic density matrices:                   0.314     0.314   0.1% |
  Mix:                                       6.471     6.471   1.2% |
  Multipole moments:                         0.014     0.014   0.0% |
  Pseudo density:                           24.767    21.072   3.9% |-|
   Symmetrize density:                       3.696     3.696   0.7% |
 Hamiltonian:                               11.234     0.211   0.0% |
  Atomic:                                    2.176     0.383   0.1% |
   XC Correction:                            1.793     1.793   0.3% |
  Calculate atomic Hamiltonians:             4.793     4.793   0.9% |
  Communicate:                               1.508     1.508   0.3% |
  Poisson:                                   0.057     0.057   0.0% |
  XC 3D grid:                                2.490     2.490   0.5% |
 Orthonormalize:                             1.731     0.002   0.0% |
  calc_s_matrix:                             0.264     0.264   0.0% |
  inverse-cholesky:                          0.143     0.143   0.0% |
  projections:                               0.846     0.846   0.2% |
  rotate_psi_s:                              0.477     0.477   0.1% |
Set symmetry:                                0.004     0.004   0.0% |
Other:                                       5.437     5.437   1.0% |
-------------------------------------------------------------------
Total:                                               545.863 100.0%

Memory usage: 469.20 MiB
Date: Fri Feb 17 09:45:53 2023
