
  ___ ___ ___ _ _ _  
 |   |   |_  | | | | 
 | | | | | . | | | | 
 |__ |  _|___|_____|  22.8.0
 |___|_|             

User:   gotols@vera10-2
Date:   Thu Feb 16 12:07:49 2023
Arch:   x86_64
Pid:    441368
CWD:    /cephyr/users/gotols/Vera/TIF320-Computational-materials-and-molecular-physics-Assignments
Python: 3.10.4
gpaw:   /apps/Arch/software/GPAW/22.8.0-foss-2022a/lib/python3.10/site-packages/gpaw
_gpaw:  /apps/Arch/software/GPAW/22.8.0-foss-2022a/lib/python3.10/site-packages/
        _gpaw.cpython-310-x86_64-linux-gnu.so
ase:    /apps/Arch/software/ASE/3.22.1-foss-2022a/lib/python3.10/site-packages/ase (version 3.22.1)
numpy:  /apps/Arch/software/SciPy-bundle/2022.05-foss-2022a/lib/python3.10/site-packages/numpy (version 1.22.3)
scipy:  /apps/Arch/software/SciPy-bundle/2022.05-foss-2022a/lib/python3.10/site-packages/scipy (version 1.8.1)
libxc:  5.2.3
units:  Angstrom and eV
cores: 1
OpenMP: False
OMP_NUM_THREADS: 1

Input parameters:
  kpts: [4 4 1]
  mode: {ecut: 450.00000000000006,
         name: pw}

System changes: positions, numbers, cell, pbc, initial_charges, initial_magmoms 

Initialize ...

species:
  Pt:
    name: Platinum
    id: 5a6399afde4becbffda6f57f3efd9534
    Z: 78.0
    valence: 16
    core: 62
    charge: 0.0
    file: /apps/Common/software/GPAW-setups/0.9.20000/Pt.LDA.gz
    compensation charges: {type: gauss,
                           rc: 0.41,
                           lmax: 2}
    cutoffs: {filter: 2.26,
              core: 2.26}
    valence states:
      #              energy  rcut
      - 6s(1.00)    -5.930   1.307
      - 5p(6.00)   -56.318   1.371
      - 6p(0.00)    -0.962   1.371
      - 5d(9.00)    -6.387   1.307
      -  s          21.281   1.307
      -  d          20.825   1.307
  
    # Using partial waves for Pt as LCAO basis

Reference energy: -13502612.219457  # eV

Spin-paired calculation

Convergence criteria:
 Maximum [total energy] change in last 3 cyles: 0.0005 eV / electron
 Maximum integral of absolute [dens]ity change: 0.0001 electrons / valence electron
 Maximum integral of absolute [eigenst]ate change: 4e-08 eV^2 / valence electron
 Maximum number of scf [iter]ations: 333
 (Square brackets indicate name in SCF output, whereas a 'c' in
 the SCF output indicates the quantity has converged.)

Symmetries present (total): 6

  ( 1  0  0)  ( 1 -1  0)  ( 0  1  0)  ( 0 -1  0)  (-1  1  0)  (-1  0  0)
  ( 0  1  0)  ( 0 -1  0)  ( 1  0  0)  ( 1 -1  0)  (-1  0  0)  (-1  1  0)
  ( 0  0  1)  ( 0  0  1)  ( 0  0  1)  ( 0  0  1)  ( 0  0  1)  ( 0  0  1)
Note: your k-points are not as symmetric as your crystal!

16 k-points: 4 x 4 x 1 Monkhorst-Pack grid
6 k-points in the irreducible part of the Brillouin zone
       k-points in crystal coordinates                weights
   0:     0.12500000   -0.12500000    0.00000000          2/16
   1:     0.12500000    0.12500000    0.00000000          2/16
   2:     0.37500000   -0.37500000    0.00000000          2/16
   3:     0.37500000   -0.12500000    0.00000000          4/16
   4:     0.37500000    0.12500000    0.00000000          4/16
   5:     0.37500000    0.37500000    0.00000000          2/16

Wave functions: Plane wave expansion
  Cutoff energy: 450.000 eV
  Number of coefficients (min, max): 22059, 22107
  Pulay-stress correction: 0.000000 eV/Ang^3 (de/decut=0.000000)
  Using FFTW library
  ScaLapack parameters: grid=1x1, blocksize=None
  Wavefunction extrapolation:
    Improved wavefunction reuse through dual PAW basis 

Occupation numbers: Fermi-Dirac:
  width: 0.1000  # eV
 

Eigensolver
   Davidson(niter=2) 

Densities:
  Coarse grid: 42*42*84 grid
  Fine grid: 84*84*168 grid
  Total Charge: 0.000000 

Density mixing:
  Method: separate
  Backend: pulay
  Linear mixing parameter: 0.05
  old densities: 5
  Damping of long wavelength oscillations: 50 

Hamiltonian:
  XC and Coulomb potentials evaluated on a 84*84*168 grid
  Using the LDA Exchange-Correlation functional
  External potential:
    NoExternalPotential
 

Memory estimate:
  Process memory now: 1568.74 MiB
  Calculator: 754.02 MiB
    Density: 64.03 MiB
      Arrays: 29.39 MiB
      Localized functions: 23.34 MiB
      Mixer: 11.30 MiB
    Hamiltonian: 19.70 MiB
      Arrays: 19.22 MiB
      XC: 0.00 MiB
      Poisson: 0.00 MiB
      vbar: 0.48 MiB
    Wavefunctions: 670.29 MiB
      Arrays psit_nG: 534.32 MiB
      Eigensolver: 101.38 MiB
      Projections: 11.75 MiB
      Projectors: 15.16 MiB
      PW-descriptor: 7.68 MiB

Total number of cores used: 1

Number of atoms: 27
Number of atomic orbitals: 324
Number of bands in calculation: 264
Number of valence electrons: 432
Bands to converge: occupied

... initialized

Initializing position-dependent things.

Density initialized from atomic densities
Creating initial wave functions:
  264 bands from LCAO basis set

                                            
                                            
                                            
                                            
                                            
                 Pt     Pt     Pt           
            Pt     Pt     Pt                
       Pt     Pt  Pt Pt  Pt    Pt           
             Pt     Pt     Pt               
        Pt     Pt     Pt                    
                     Pt     Pt    Pt        
                Pt     Pt     Pt            
                                            
           Pt     Pt     Pt                 
                                            
                                            
                                            
                                            

Positions:
   0 Pt     1.403607    0.810373    6.000000    ( 0.0000,  0.0000,  0.0000)
   1 Pt     4.210821    0.810373    6.000000    ( 0.0000,  0.0000,  0.0000)
   2 Pt     7.018035    0.810373    6.000000    ( 0.0000,  0.0000,  0.0000)
   3 Pt     2.807214    3.241491    6.000000    ( 0.0000,  0.0000,  0.0000)
   4 Pt     5.614428    3.241491    6.000000    ( 0.0000,  0.0000,  0.0000)
   5 Pt     8.421642    3.241491    6.000000    ( 0.0000,  0.0000,  0.0000)
   6 Pt     4.210821    5.672610    6.000000    ( 0.0000,  0.0000,  0.0000)
   7 Pt     7.018035    5.672610    6.000000    ( 0.0000,  0.0000,  0.0000)
   8 Pt     9.825249    5.672610    6.000000    ( 0.0000,  0.0000,  0.0000)
   9 Pt    -0.000000    1.620746    8.292081    ( 0.0000,  0.0000,  0.0000)
  10 Pt     2.807214    1.620746    8.292081    ( 0.0000,  0.0000,  0.0000)
  11 Pt     5.614428    1.620746    8.292081    ( 0.0000,  0.0000,  0.0000)
  12 Pt     1.403607    4.051864    8.292081    ( 0.0000,  0.0000,  0.0000)
  13 Pt     4.210821    4.051864    8.292081    ( 0.0000,  0.0000,  0.0000)
  14 Pt     7.018035    4.051864    8.292081    ( 0.0000,  0.0000,  0.0000)
  15 Pt     2.807214    6.482983    8.292081    ( 0.0000,  0.0000,  0.0000)
  16 Pt     5.614428    6.482983    8.292081    ( 0.0000,  0.0000,  0.0000)
  17 Pt     8.421642    6.482983    8.292081    ( 0.0000,  0.0000,  0.0000)
  18 Pt     0.000000    0.000000   10.584161    ( 0.0000,  0.0000,  0.0000)
  19 Pt     2.807214    0.000000   10.584161    ( 0.0000,  0.0000,  0.0000)
  20 Pt     5.614428    0.000000   10.584161    ( 0.0000,  0.0000,  0.0000)
  21 Pt     1.403607    2.431119   10.584161    ( 0.0000,  0.0000,  0.0000)
  22 Pt     4.210821    2.431119   10.584161    ( 0.0000,  0.0000,  0.0000)
  23 Pt     7.018035    2.431119   10.584161    ( 0.0000,  0.0000,  0.0000)
  24 Pt     2.807214    4.862237   10.584161    ( 0.0000,  0.0000,  0.0000)
  25 Pt     5.614428    4.862237   10.584161    ( 0.0000,  0.0000,  0.0000)
  26 Pt     8.421642    4.862237   10.584161    ( 0.0000,  0.0000,  0.0000)

Unit cell:
           periodic     x           y           z      points  spacing
  1. axis:    yes    8.421642    0.000000    0.000000    42     0.1737
  2. axis:    yes    4.210821    7.293356    0.000000    42     0.1737
  3. axis:    no     0.000000    0.000000   16.584161    84     0.1974

  Lengths:   8.421642   8.421642  16.584161
  Angles:   90.000000  90.000000  60.000000

Effective grid spacing dv^(1/3) = 0.1901

     iter     time        total  log10-change:
                         energy  eigst   dens
iter:   1 12:09:44  -208.958684
iter:   2 12:10:17  -206.097624  -1.19  -1.39
iter:   3 12:10:51  -200.492166  -1.69  -1.44
iter:   4 12:11:24  -195.784452  -1.31  -1.58
iter:   5 12:11:57  -195.963612  -2.19  -2.00
iter:   6 12:12:31  -195.481004  -2.76  -2.09
iter:   7 12:13:04  -195.352817  -3.19  -2.26
iter:   8 12:13:38  -195.334269c -3.87  -2.32
iter:   9 12:14:11  -195.229863c -3.09  -2.35
iter:  10 12:14:45  -195.233050c -3.64  -2.99
iter:  11 12:15:18  -195.230385c -4.51  -3.11
iter:  12 12:15:51  -195.231401c -4.87  -3.17
iter:  13 12:16:25  -195.232869c -5.15  -3.13
iter:  14 12:16:58  -195.231897c -5.13  -3.08
iter:  15 12:17:31  -195.231176c -5.24  -3.10
iter:  16 12:18:04  -195.229219c -4.83  -3.12
iter:  17 12:18:38  -195.229638c -6.30  -3.21
iter:  18 12:19:11  -195.234230c -5.04  -3.24
iter:  19 12:19:44  -195.234524c -5.31  -3.45
iter:  20 12:20:18  -195.233988c -5.58  -3.51
iter:  21 12:20:51  -195.233824c -6.68  -3.70
iter:  22 12:21:24  -195.233441c -5.76  -3.78
iter:  23 12:21:58  -195.233013c -6.03  -3.93
iter:  24 12:22:31  -195.232809c -6.48  -3.93
iter:  25 12:23:05  -195.232683c -6.66  -4.13c
iter:  26 12:23:38  -195.232716c -6.78  -4.21c
iter:  27 12:24:12  -195.232657c -6.87  -4.20c
iter:  28 12:24:45  -195.232684c -7.79c -4.85c

Converged after 28 iterations.

Dipole moment: (-0.204223, -0.117908, -0.000011) |e|*Ang

Energy contributions relative to reference atoms: (reference = -13502612.219457)

Kinetic:       -418.267391
Potential:     +339.681573
External:        +0.000000
XC:             -99.669799
Entropy (-ST):   -1.851366
Local:          -16.051385
--------------------------
Free energy:   -196.158367
Extrapolated:  -195.232684

Showing only first 2 kpts
 Kpt  Band  Eigenvalues  Occupancy
  0   214      0.90354    1.32201
  0   215      0.90356    1.32193
  0   216      0.91512    1.26921
  0   217      0.97196    0.99181

  1   214      0.73197    1.83112
  1   215      0.74820    1.80427
  1   216      0.79963    1.69287
  1   217      0.79963    1.69287


Fermi level: 0.97032

No gap

Forces in eV/Ang:
  0 Pt    0.00000    0.00000    0.61526
  1 Pt    0.00000    0.00001    0.61526
  2 Pt   -0.00000    0.00000    0.61526
  3 Pt    0.00000   -0.00000    0.61526
  4 Pt   -0.00000   -0.00000    0.61526
  5 Pt   -0.00000   -0.00000    0.61526
  6 Pt    0.00000   -0.00000    0.61526
  7 Pt   -0.00000    0.00000    0.61526
  8 Pt    0.00000    0.00000    0.61526
  9 Pt    0.00000    0.00000    0.00018
 10 Pt    0.00000    0.00000    0.00018
 11 Pt   -0.00000    0.00000    0.00018
 12 Pt    0.00000   -0.00000    0.00018
 13 Pt    0.00000   -0.00000    0.00018
 14 Pt   -0.00000   -0.00000    0.00018
 15 Pt   -0.00000   -0.00000    0.00018
 16 Pt    0.00000   -0.00000    0.00018
 17 Pt   -0.00000    0.00000    0.00018
 18 Pt   -0.00000   -0.00000   -0.61503
 19 Pt    0.00000    0.00000   -0.61502
 20 Pt   -0.00000    0.00000   -0.61502
 21 Pt    0.00000    0.00000   -0.61502
 22 Pt   -0.00000   -0.00000   -0.61502
 23 Pt   -0.00000    0.00000   -0.61502
 24 Pt    0.00000   -0.00000   -0.61502
 25 Pt   -0.00000   -0.00000   -0.61502
 26 Pt    0.00000   -0.00000   -0.61502

System changes: positions 

Initializing position-dependent things.

Density initialized from wave functions
                                            
                                            
                                            
                                            
                 Pt     Pt     Pt           
                                            
            Pt    PPt    PPt   Pt           
       Pt     Pt     Pt                     
             Pt     Pt     Pt               
        Pt     Pt    PPt    Pt    Pt        
                                            
                Pt     Pt     Pt            
           Pt     Pt     Pt                 
                                            
                                            
                                            
                                            

Positions:
   0 Pt     1.403608    0.810373    6.094299    ( 0.0000,  0.0000,  0.0000)
   1 Pt     4.210821    0.810374    6.094299    ( 0.0000,  0.0000,  0.0000)
   2 Pt     7.018034    0.810373    6.094299    ( 0.0000,  0.0000,  0.0000)
   3 Pt     2.807215    3.241491    6.094299    ( 0.0000,  0.0000,  0.0000)
   4 Pt     5.614427    3.241491    6.094299    ( 0.0000,  0.0000,  0.0000)
   5 Pt     8.421642    3.241491    6.094299    ( 0.0000,  0.0000,  0.0000)
   6 Pt     4.210821    5.672609    6.094299    ( 0.0000,  0.0000,  0.0000)
   7 Pt     7.018035    5.672610    6.094299    ( 0.0000,  0.0000,  0.0000)
   8 Pt     9.825249    5.672610    6.094299    ( 0.0000,  0.0000,  0.0000)
   9 Pt    -0.000000    1.620746    8.292109    ( 0.0000,  0.0000,  0.0000)
  10 Pt     2.807214    1.620746    8.292109    ( 0.0000,  0.0000,  0.0000)
  11 Pt     5.614427    1.620746    8.292109    ( 0.0000,  0.0000,  0.0000)
  12 Pt     1.403607    4.051864    8.292109    ( 0.0000,  0.0000,  0.0000)
  13 Pt     4.210821    4.051864    8.292109    ( 0.0000,  0.0000,  0.0000)
  14 Pt     7.018034    4.051864    8.292109    ( 0.0000,  0.0000,  0.0000)
  15 Pt     2.807214    6.482983    8.292109    ( 0.0000,  0.0000,  0.0000)
  16 Pt     5.614428    6.482983    8.292109    ( 0.0000,  0.0000,  0.0000)
  17 Pt     8.421642    6.482983    8.292109    ( 0.0000,  0.0000,  0.0000)
  18 Pt    -0.000000   -0.000000   10.489898    ( 0.0000,  0.0000,  0.0000)
  19 Pt     2.807214    0.000000   10.489898    ( 0.0000,  0.0000,  0.0000)
  20 Pt     5.614427    0.000000   10.489898    ( 0.0000,  0.0000,  0.0000)
  21 Pt     1.403607    2.431119   10.489898    ( 0.0000,  0.0000,  0.0000)
  22 Pt     4.210821    2.431119   10.489898    ( 0.0000,  0.0000,  0.0000)
  23 Pt     7.018034    2.431119   10.489898    ( 0.0000,  0.0000,  0.0000)
  24 Pt     2.807214    4.862237   10.489898    ( 0.0000,  0.0000,  0.0000)
  25 Pt     5.614428    4.862237   10.489898    ( 0.0000,  0.0000,  0.0000)
  26 Pt     8.421642    4.862237   10.489899    ( 0.0000,  0.0000,  0.0000)

Unit cell:
           periodic     x           y           z      points  spacing
  1. axis:    yes    8.421642    0.000000    0.000000    42     0.1737
  2. axis:    yes    4.210821    7.293356    0.000000    42     0.1737
  3. axis:    no     0.000000    0.000000   16.584161    84     0.1974

  Lengths:   8.421642   8.421642  16.584161
  Angles:   90.000000  90.000000  60.000000

Effective grid spacing dv^(1/3) = 0.1901

     iter     time        total  log10-change:
                         energy  eigst   dens
iter:   1 12:25:28  -212.861543  -0.74
iter:   2 12:26:02  -196.749801  -1.44  -1.41
iter:   3 12:26:36  -196.154924  -2.13  -1.93
iter:   4 12:27:09  -195.956152  -2.88  -2.18
iter:   5 12:27:43  -195.864824  -2.94  -2.29
iter:   6 12:28:16  -195.873492c -3.27  -2.48
iter:   7 12:28:50  -195.845580c -3.99  -2.70
iter:   8 12:29:24  -195.847074c -4.07  -2.91
iter:   9 12:29:57  -195.845228c -4.99  -3.08
iter:  10 12:30:31  -195.837948c -4.47  -3.13
iter:  11 12:31:05  -195.838476c -5.42  -3.46
iter:  12 12:31:38  -195.838754c -5.07  -3.63
iter:  13 12:32:12  -195.838083c -6.24  -3.81
iter:  14 12:32:46  -195.837805c -6.46  -3.93
iter:  15 12:33:20  -195.837847c -6.92  -3.97
iter:  16 12:33:54  -195.837977c -6.86  -4.01c
iter:  17 12:34:27  -195.837964c -7.29  -4.04c
iter:  18 12:35:01  -195.837714c -6.95  -4.07c
iter:  19 12:35:35  -195.837791c -7.54c -4.34c

Converged after 19 iterations.

Dipole moment: (-0.280035, -0.161678, 0.000053) |e|*Ang

Energy contributions relative to reference atoms: (reference = -13502612.219457)

Kinetic:       -326.536811
Potential:     +261.237288
External:        +0.000000
XC:            -113.252843
Entropy (-ST):   -1.844129
Local:          -16.363360
--------------------------
Free energy:   -196.759855
Extrapolated:  -195.837791

Showing only first 2 kpts
 Kpt  Band  Eigenvalues  Occupancy
  0   214      0.94561    1.47597
  0   215      0.94562    1.47592
  0   216      0.99906    1.24540
  0   217      1.09431    0.77801

  1   214      0.82964    1.79964
  1   215      0.82966    1.79961
  1   216      0.83550    1.78883
  1   217      0.83552    1.78879


Fermi level: 1.04916

No gap

Forces in eV/Ang:
  0 Pt   -0.00001   -0.00000    0.07422
  1 Pt    0.00000   -0.00001    0.07421
  2 Pt    0.00001   -0.00000    0.07422
  3 Pt   -0.00001    0.00000    0.07421
  4 Pt    0.00001    0.00000    0.07421
  5 Pt    0.00000    0.00000    0.07422
  6 Pt    0.00000    0.00001    0.07422
  7 Pt    0.00000   -0.00000    0.07422
  8 Pt   -0.00000   -0.00000    0.07422
  9 Pt   -0.00000   -0.00000   -0.00024
 10 Pt   -0.00001   -0.00000   -0.00024
 11 Pt    0.00001   -0.00000   -0.00024
 12 Pt   -0.00001    0.00000   -0.00024
 13 Pt    0.00000    0.00001   -0.00024
 14 Pt    0.00001    0.00000   -0.00024
 15 Pt    0.00000    0.00000   -0.00024
 16 Pt   -0.00000    0.00000   -0.00024
 17 Pt   -0.00000   -0.00001   -0.00024
 18 Pt    0.00000    0.00000   -0.07426
 19 Pt   -0.00000   -0.00000   -0.07427
 20 Pt    0.00000   -0.00000   -0.07427
 21 Pt   -0.00000   -0.00000   -0.07427
 22 Pt    0.00000   -0.00000   -0.07426
 23 Pt    0.00000   -0.00000   -0.07427
 24 Pt   -0.00000    0.00000   -0.07427
 25 Pt    0.00000    0.00000   -0.07427
 26 Pt    0.00000    0.00000   -0.07427

System changes: positions 

Initializing position-dependent things.

Density initialized from wave functions
                                            
                                            
                                            
                                            
                 Pt     Pt     Pt           
                                            
            Pt    PPt    PPt   Pt           
       Pt     Pt     Pt                     
             Pt     Pt     Pt               
        Pt     Pt    PPt    Pt    Pt        
                                            
                Pt     Pt     Pt            
           Pt     Pt     Pt                 
                                            
                                            
                                            
                                            

Positions:
   0 Pt     1.403606    0.810372    6.113361    ( 0.0000,  0.0000,  0.0000)
   1 Pt     4.210821    0.810371    6.113359    ( 0.0000,  0.0000,  0.0000)
   2 Pt     7.018036    0.810372    6.113361    ( 0.0000,  0.0000,  0.0000)
   3 Pt     2.807213    3.241492    6.113359    ( 0.0000,  0.0000,  0.0000)
   4 Pt     5.614429    3.241492    6.113359    ( 0.0000,  0.0000,  0.0000)
   5 Pt     8.421642    3.241492    6.113361    ( 0.0000,  0.0000,  0.0000)
   6 Pt     4.210821    5.672611    6.113361    ( 0.0000,  0.0000,  0.0000)
   7 Pt     7.018035    5.672610    6.113361    ( 0.0000,  0.0000,  0.0000)
   8 Pt     9.825248    5.672610    6.113361    ( 0.0000,  0.0000,  0.0000)
   9 Pt    -0.000000    1.620745    8.292040    ( 0.0000,  0.0000,  0.0000)
  10 Pt     2.807212    1.620745    8.292041    ( 0.0000,  0.0000,  0.0000)
  11 Pt     5.614429    1.620745    8.292041    ( 0.0000,  0.0000,  0.0000)
  12 Pt     1.403605    4.051865    8.292040    ( 0.0000,  0.0000,  0.0000)
  13 Pt     4.210821    4.051866    8.292041    ( 0.0000,  0.0000,  0.0000)
  14 Pt     7.018037    4.051865    8.292040    ( 0.0000,  0.0000,  0.0000)
  15 Pt     2.807214    6.482983    8.292040    ( 0.0000,  0.0000,  0.0000)
  16 Pt     5.614427    6.482983    8.292040    ( 0.0000,  0.0000,  0.0000)
  17 Pt     8.421642    6.482981    8.292040    ( 0.0000,  0.0000,  0.0000)
  18 Pt    -0.000000   -0.000000   10.470824    ( 0.0000,  0.0000,  0.0000)
  19 Pt     2.807213   -0.000001   10.470824    ( 0.0000,  0.0000,  0.0000)
  20 Pt     5.614428   -0.000001   10.470824    ( 0.0000,  0.0000,  0.0000)
  21 Pt     1.403606    2.431118   10.470824    ( 0.0000,  0.0000,  0.0000)
  22 Pt     4.210821    2.431119   10.470825    ( 0.0000,  0.0000,  0.0000)
  23 Pt     7.018036    2.431118   10.470824    ( 0.0000,  0.0000,  0.0000)
  24 Pt     2.807214    4.862238   10.470824    ( 0.0000,  0.0000,  0.0000)
  25 Pt     5.614428    4.862238   10.470824    ( 0.0000,  0.0000,  0.0000)
  26 Pt     8.421642    4.862237   10.470824    ( 0.0000,  0.0000,  0.0000)

Unit cell:
           periodic     x           y           z      points  spacing
  1. axis:    yes    8.421642    0.000000    0.000000    42     0.1737
  2. axis:    yes    4.210821    7.293356    0.000000    42     0.1737
  3. axis:    no     0.000000    0.000000   16.584161    84     0.1974

  Lengths:   8.421642   8.421642  16.584161
  Angles:   90.000000  90.000000  60.000000

Effective grid spacing dv^(1/3) = 0.1901

     iter     time        total  log10-change:
                         energy  eigst   dens
iter:   1 12:36:18  -196.745931  -2.08
iter:   2 12:36:51  -195.892616  -2.73  -2.07
iter:   3 12:37:25  -195.858985  -3.50  -2.61
iter:   4 12:37:58  -195.847638c -3.99  -2.83
iter:   5 12:38:32  -195.845001c -4.63  -2.99
iter:   6 12:39:05  -195.842102c -4.40  -3.06
iter:   7 12:39:39  -195.843498c -4.99  -3.24
iter:   8 12:40:13  -195.844193c -5.64  -3.73
iter:   9 12:40:46  -195.843894c -6.31  -3.77
iter:  10 12:41:20  -195.843000c -5.95  -3.86
iter:  11 12:41:53  -195.843062c -6.66  -4.14c
iter:  12 12:42:27  -195.843033c -6.79  -4.19c
iter:  13 12:43:01  -195.843015c -7.69c -4.46c

Converged after 13 iterations.

Dipole moment: (-0.297465, -0.171742, -0.000006) |e|*Ang

Energy contributions relative to reference atoms: (reference = -13502612.219457)

Kinetic:       -305.538565
Potential:     +243.316689
External:        +0.000000
XC:            -116.259051
Entropy (-ST):   -1.832327
Local:          -16.445925
--------------------------
Free energy:   -196.759179
Extrapolated:  -195.843015

Showing only first 2 kpts
 Kpt  Band  Eigenvalues  Occupancy
  0   214      0.95005    1.51384
  0   215      0.95006    1.51380
  0   216      1.01168    1.25409
  0   217      1.10760    0.78366

  1   214      0.84114    1.80492
  1   215      0.84117    1.80488
  1   216      0.84797    1.79256
  1   217      0.84799    1.79253


Fermi level: 1.06363

No gap

Forces in eV/Ang:
  0 Pt    0.00001    0.00001   -0.06714
  1 Pt   -0.00000    0.00001   -0.06711
  2 Pt   -0.00001    0.00001   -0.06714
  3 Pt    0.00001   -0.00001   -0.06711
  4 Pt   -0.00001   -0.00001   -0.06711
  5 Pt    0.00000   -0.00001   -0.06714
  6 Pt    0.00000   -0.00001   -0.06714
  7 Pt   -0.00001    0.00000   -0.06714
  8 Pt    0.00001    0.00000   -0.06714
  9 Pt   -0.00000    0.00001    0.00063
 10 Pt    0.00002    0.00001    0.00060
 11 Pt   -0.00002    0.00001    0.00060
 12 Pt    0.00002   -0.00001    0.00063
 13 Pt    0.00000   -0.00002    0.00060
 14 Pt   -0.00002   -0.00001    0.00063
 15 Pt   -0.00001   -0.00000    0.00063
 16 Pt    0.00001   -0.00000    0.00063
 17 Pt    0.00000    0.00003    0.00063
 18 Pt    0.00000   -0.00000    0.06689
 19 Pt    0.00001    0.00000    0.06690
 20 Pt   -0.00001    0.00000    0.06690
 21 Pt    0.00001    0.00000    0.06690
 22 Pt   -0.00000   -0.00000    0.06688
 23 Pt   -0.00001    0.00000    0.06690
 24 Pt   -0.00000   -0.00001    0.06690
 25 Pt    0.00000   -0.00001    0.06690
 26 Pt   -0.00000   -0.00000    0.06691

System changes: positions 

Initializing position-dependent things.

Density initialized from wave functions
                                            
                                            
                                            
                                            
                 Pt     Pt     Pt           
                                            
            Pt    PPt    PPt   Pt           
       Pt     Pt     Pt                     
             Pt     Pt     Pt               
        Pt     Pt    PPt    Pt    Pt        
                                            
                Pt     Pt     Pt            
           Pt     Pt     Pt                 
                                            
                                            
                                            
                                            

Positions:
   0 Pt     1.403607    0.810373    6.105329    ( 0.0000,  0.0000,  0.0000)
   1 Pt     4.210821    0.810372    6.105330    ( 0.0000,  0.0000,  0.0000)
   2 Pt     7.018035    0.810373    6.105329    ( 0.0000,  0.0000,  0.0000)
   3 Pt     2.807213    3.241492    6.105330    ( 0.0000,  0.0000,  0.0000)
   4 Pt     5.614428    3.241492    6.105330    ( 0.0000,  0.0000,  0.0000)
   5 Pt     8.421642    3.241491    6.105328    ( 0.0000,  0.0000,  0.0000)
   6 Pt     4.210821    5.672610    6.105329    ( 0.0000,  0.0000,  0.0000)
   7 Pt     7.018035    5.672610    6.105328    ( 0.0000,  0.0000,  0.0000)
   8 Pt     9.825249    5.672610    6.105328    ( 0.0000,  0.0000,  0.0000)
   9 Pt    -0.000000    1.620746    8.292105    ( 0.0000,  0.0000,  0.0000)
  10 Pt     2.807214    1.620746    8.292103    ( 0.0000,  0.0000,  0.0000)
  11 Pt     5.614427    1.620746    8.292103    ( 0.0000,  0.0000,  0.0000)
  12 Pt     1.403608    4.051864    8.292105    ( 0.0000,  0.0000,  0.0000)
  13 Pt     4.210821    4.051864    8.292103    ( 0.0000,  0.0000,  0.0000)
  14 Pt     7.018034    4.051864    8.292105    ( 0.0000,  0.0000,  0.0000)
  15 Pt     2.807214    6.482983    8.292105    ( 0.0000,  0.0000,  0.0000)
  16 Pt     5.614428    6.482983    8.292105    ( 0.0000,  0.0000,  0.0000)
  17 Pt     8.421642    6.482984    8.292105    ( 0.0000,  0.0000,  0.0000)
  18 Pt    -0.000000   -0.000000   10.478816    ( 0.0000,  0.0000,  0.0000)
  19 Pt     2.807214   -0.000001   10.478816    ( 0.0000,  0.0000,  0.0000)
  20 Pt     5.614428   -0.000001   10.478816    ( 0.0000,  0.0000,  0.0000)
  21 Pt     1.403606    2.431119   10.478816    ( 0.0000,  0.0000,  0.0000)
  22 Pt     4.210821    2.431119   10.478815    ( 0.0000,  0.0000,  0.0000)
  23 Pt     7.018035    2.431119   10.478816    ( 0.0000,  0.0000,  0.0000)
  24 Pt     2.807213    4.862238   10.478816    ( 0.0000,  0.0000,  0.0000)
  25 Pt     5.614428    4.862238   10.478816    ( 0.0000,  0.0000,  0.0000)
  26 Pt     8.421642    4.862237   10.478817    ( 0.0000,  0.0000,  0.0000)

Unit cell:
           periodic     x           y           z      points  spacing
  1. axis:    yes    8.421642    0.000000    0.000000    42     0.1737
  2. axis:    yes    4.210821    7.293356    0.000000    42     0.1737
  3. axis:    no     0.000000    0.000000   16.584161    84     0.1974

  Lengths:   8.421642   8.421642  16.584161
  Angles:   90.000000  90.000000  60.000000

Effective grid spacing dv^(1/3) = 0.1901

     iter     time        total  log10-change:
                         energy  eigst   dens
iter:   1 12:43:44  -195.969932  -2.81
iter:   2 12:44:17  -195.850287  -3.50  -2.44
iter:   3 12:44:51  -195.850365c -4.13  -2.93
iter:   4 12:45:25  -195.849502c -4.99  -3.19
iter:   5 12:45:58  -195.846963c -5.02  -3.21
iter:   6 12:46:32  -195.849772c -4.89  -3.41
iter:   7 12:47:05  -195.846326c -5.54  -3.53
iter:   8 12:47:39  -195.845810c -6.10  -4.02c
iter:   9 12:48:12  -195.845979c -6.86  -4.13c
iter:  10 12:48:46  -195.846054c -6.97  -4.20c
iter:  11 12:49:19  -195.846167c -7.02  -4.21c
iter:  12 12:49:53  -195.846211c -7.61c -4.70c

Converged after 12 iterations.

Dipole moment: (-0.291039, -0.168031, 0.000052) |e|*Ang

Energy contributions relative to reference atoms: (reference = -13502612.219457)

Kinetic:       -314.347955
Potential:     +250.861387
External:        +0.000000
XC:            -115.018283
Entropy (-ST):   -1.837836
Local:          -16.422442
--------------------------
Free energy:   -196.765129
Extrapolated:  -195.846211

Showing only first 2 kpts
 Kpt  Band  Eigenvalues  Occupancy
  0   214      0.94859    1.49825
  0   215      0.94860    1.49821
  0   216      1.00705    1.24931
  0   217      1.10266    0.78029

  1   214      0.83909    1.79850
  1   215      0.83912    1.79846
  1   216      0.84076    1.79547
  1   217      0.84078    1.79544


Fermi level: 1.05799

No gap

Forces in eV/Ang:
  0 Pt    0.00000    0.00000   -0.01388
  1 Pt    0.00000    0.00002   -0.01391
  2 Pt   -0.00000    0.00000   -0.01388
  3 Pt    0.00001   -0.00001   -0.01391
  4 Pt   -0.00001   -0.00001   -0.01391
  5 Pt    0.00000   -0.00000   -0.01386
  6 Pt    0.00000   -0.00000   -0.01388
  7 Pt   -0.00000    0.00000   -0.01386
  8 Pt    0.00000    0.00000   -0.01386
  9 Pt    0.00000    0.00000   -0.00022
 10 Pt   -0.00001   -0.00000   -0.00019
 11 Pt    0.00001   -0.00000   -0.00019
 12 Pt   -0.00001    0.00001   -0.00021
 13 Pt    0.00000    0.00001   -0.00019
 14 Pt    0.00001    0.00001   -0.00021
 15 Pt   -0.00000   -0.00000   -0.00022
 16 Pt    0.00000   -0.00000   -0.00022
 17 Pt   -0.00000   -0.00002   -0.00021
 18 Pt   -0.00000   -0.00000    0.01424
 19 Pt    0.00001    0.00001    0.01425
 20 Pt   -0.00001    0.00001    0.01425
 21 Pt    0.00002   -0.00000    0.01425
 22 Pt    0.00000   -0.00000    0.01426
 23 Pt   -0.00002   -0.00000    0.01425
 24 Pt    0.00001   -0.00001    0.01425
 25 Pt   -0.00001   -0.00001    0.01425
 26 Pt   -0.00000   -0.00000    0.01424

System changes: positions 

Initializing position-dependent things.

Density initialized from wave functions
                                            
                                            
                                            
                                            
                 Pt     Pt     Pt           
                                            
            Pt    PPt    PPt   Pt           
       Pt     Pt     Pt                     
             Pt     Pt     Pt               
        Pt     Pt    PPt    Pt    Pt        
                                            
                Pt     Pt     Pt            
           Pt     Pt     Pt                 
                                            
                                            
                                            
                                            

Positions:
   0 Pt     1.403607    0.810373    6.103543    ( 0.0000,  0.0000,  0.0000)
   1 Pt     4.210821    0.810376    6.103539    ( 0.0000,  0.0000,  0.0000)
   2 Pt     7.018034    0.810373    6.103543    ( 0.0000,  0.0000,  0.0000)
   3 Pt     2.807217    3.241490    6.103539    ( 0.0000,  0.0000,  0.0000)
   4 Pt     5.614425    3.241490    6.103539    ( 0.0000,  0.0000,  0.0000)
   5 Pt     8.421642    3.241490    6.103547    ( 0.0000,  0.0000,  0.0000)
   6 Pt     4.210821    5.672609    6.103543    ( 0.0000,  0.0000,  0.0000)
   7 Pt     7.018034    5.672611    6.103547    ( 0.0000,  0.0000,  0.0000)
   8 Pt     9.825250    5.672611    6.103547    ( 0.0000,  0.0000,  0.0000)
   9 Pt    -0.000000    1.620746    8.292044    ( 0.0000,  0.0000,  0.0000)
  10 Pt     2.807213    1.620745    8.292049    ( 0.0000,  0.0000,  0.0000)
  11 Pt     5.614429    1.620745    8.292049    ( 0.0000,  0.0000,  0.0000)
  12 Pt     1.403604    4.051866    8.292046    ( 0.0000,  0.0000,  0.0000)
  13 Pt     4.210821    4.051866    8.292049    ( 0.0000,  0.0000,  0.0000)
  14 Pt     7.018037    4.051866    8.292046    ( 0.0000,  0.0000,  0.0000)
  15 Pt     2.807214    6.482983    8.292044    ( 0.0000,  0.0000,  0.0000)
  16 Pt     5.614428    6.482983    8.292044    ( 0.0000,  0.0000,  0.0000)
  17 Pt     8.421642    6.482980    8.292046    ( 0.0000,  0.0000,  0.0000)
  18 Pt    -0.000000   -0.000000   10.480688    ( 0.0000,  0.0000,  0.0000)
  19 Pt     2.807215    0.000003   10.480690    ( 0.0000,  0.0000,  0.0000)
  20 Pt     5.614427    0.000003   10.480690    ( 0.0000,  0.0000,  0.0000)
  21 Pt     1.403610    2.431118   10.480690    ( 0.0000,  0.0000,  0.0000)
  22 Pt     4.210821    2.431119   10.480693    ( 0.0000,  0.0000,  0.0000)
  23 Pt     7.018032    2.431118   10.480690    ( 0.0000,  0.0000,  0.0000)
  24 Pt     2.807216    4.862235   10.480690    ( 0.0000,  0.0000,  0.0000)
  25 Pt     5.614426    4.862235   10.480690    ( 0.0000,  0.0000,  0.0000)
  26 Pt     8.421642    4.862237   10.480687    ( 0.0000,  0.0000,  0.0000)

Unit cell:
           periodic     x           y           z      points  spacing
  1. axis:    yes    8.421642    0.000000    0.000000    42     0.1737
  2. axis:    yes    4.210821    7.293356    0.000000    42     0.1737
  3. axis:    no     0.000000    0.000000   16.584161    84     0.1974

  Lengths:   8.421642   8.421642  16.584161
  Angles:   90.000000  90.000000  60.000000

Effective grid spacing dv^(1/3) = 0.1901

     iter     time        total  log10-change:
                         energy  eigst   dens
iter:   1 12:50:36  -195.847343  -4.10
iter:   2 12:51:09  -195.845325  -4.75  -3.08
iter:   3 12:51:42  -195.846320c -5.43  -3.59
iter:   4 12:52:15  -195.846227c -6.33  -3.77
iter:   5 12:52:49  -195.846024c -6.20  -3.85
iter:   6 12:53:22  -195.846431c -6.03  -4.03c
iter:   7 12:53:55  -195.845928c -6.92  -4.17c
iter:   8 12:54:28  -195.845782c -7.30  -4.62c
iter:   9 12:55:02  -195.845927c -7.67c -4.77c

Converged after 9 iterations.

Dipole moment: (-0.289751, -0.167288, 0.000200) |e|*Ang

Energy contributions relative to reference atoms: (reference = -13502612.219457)

Kinetic:       -316.382801
Potential:     +252.588791
External:        +0.000000
XC:            -114.719255
Entropy (-ST):   -1.838793
Local:          -16.413266
--------------------------
Free energy:   -196.765324
Extrapolated:  -195.845927

Showing only first 2 kpts
 Kpt  Band  Eigenvalues  Occupancy
  0   214      0.94807    1.49423
  0   215      0.94808    1.49418
  0   216      1.00558    1.24876
  0   217      1.10115    0.77990

  1   214      0.83847    1.79675
  1   215      0.83849    1.79671
  1   216      0.83871    1.79630
  1   217      0.83873    1.79627


Fermi level: 1.05640

No gap

Forces in eV/Ang:
  0 Pt    0.00009    0.00005    0.00511
  1 Pt    0.00000    0.00009    0.00499
  2 Pt   -0.00009    0.00005    0.00511
  3 Pt    0.00008   -0.00005    0.00499
  4 Pt   -0.00008   -0.00005    0.00499
  5 Pt    0.00000    0.00000    0.00510
  6 Pt   -0.00000   -0.00011    0.00511
  7 Pt    0.00000   -0.00000    0.00510
  8 Pt   -0.00000   -0.00000    0.00510
  9 Pt    0.00000   -0.00005   -0.00002
 10 Pt   -0.00002   -0.00001   -0.00020
 11 Pt    0.00002   -0.00001   -0.00020
 12 Pt    0.00004   -0.00002   -0.00010
 13 Pt    0.00000    0.00002   -0.00020
 14 Pt   -0.00004   -0.00002   -0.00010
 15 Pt    0.00004    0.00002   -0.00002
 16 Pt   -0.00004    0.00002   -0.00002
 17 Pt    0.00000    0.00005   -0.00010
 18 Pt    0.00000   -0.00000   -0.00698
 19 Pt   -0.00001   -0.00003   -0.00686
 20 Pt    0.00001   -0.00003   -0.00686
 21 Pt   -0.00003    0.00001   -0.00686
 22 Pt    0.00000   -0.00000   -0.00679
 23 Pt    0.00003    0.00001   -0.00686
 24 Pt   -0.00002    0.00002   -0.00686
 25 Pt    0.00002    0.00002   -0.00686
 26 Pt    0.00000   -0.00000   -0.00680

System changes: positions 

Initializing position-dependent things.

Density initialized from wave functions
                                            
                                            
                                            
                                            
                 Pt     Pt     Pt           
                                            
            Pt    PPt    PPt   Pt           
       Pt     Pt     Pt                     
             Pt     Pt     Pt               
        Pt     Pt    PPt    Pt    Pt        
                                            
                Pt     Pt     Pt            
           Pt     Pt     Pt                 
                                            
                                            
                                            
                                            

Positions:
   0 Pt     1.403617    0.810379    6.103879    ( 0.0000,  0.0000,  0.0000)
   1 Pt     4.210821    0.810388    6.103856    ( 0.0000,  0.0000,  0.0000)
   2 Pt     7.018025    0.810379    6.103879    ( 0.0000,  0.0000,  0.0000)
   3 Pt     2.807227    3.241484    6.103856    ( 0.0000,  0.0000,  0.0000)
   4 Pt     5.614415    3.241484    6.103856    ( 0.0000,  0.0000,  0.0000)
   5 Pt     8.421642    3.241490    6.103884    ( 0.0000,  0.0000,  0.0000)
   6 Pt     4.210821    5.672598    6.103879    ( 0.0000,  0.0000,  0.0000)
   7 Pt     7.018033    5.672611    6.103884    ( 0.0000,  0.0000,  0.0000)
   8 Pt     9.825250    5.672611    6.103884    ( 0.0000,  0.0000,  0.0000)
   9 Pt    -0.000000    1.620741    8.291991    ( 0.0000,  0.0000,  0.0000)
  10 Pt     2.807209    1.620743    8.291983    ( 0.0000,  0.0000,  0.0000)
  11 Pt     5.614432    1.620743    8.291983    ( 0.0000,  0.0000,  0.0000)
  12 Pt     1.403606    4.051865    8.291985    ( 0.0000,  0.0000,  0.0000)
  13 Pt     4.210821    4.051869    8.291983    ( 0.0000,  0.0000,  0.0000)
  14 Pt     7.018036    4.051865    8.291985    ( 0.0000,  0.0000,  0.0000)
  15 Pt     2.807218    6.482985    8.291991    ( 0.0000,  0.0000,  0.0000)
  16 Pt     5.614424    6.482985    8.291991    ( 0.0000,  0.0000,  0.0000)
  17 Pt     8.421642    6.482982    8.291985    ( 0.0000,  0.0000,  0.0000)
  18 Pt    -0.000000   -0.000000   10.480230    ( 0.0000,  0.0000,  0.0000)
  19 Pt     2.807216    0.000002   10.480245    ( 0.0000,  0.0000,  0.0000)
  20 Pt     5.614426    0.000002   10.480245    ( 0.0000,  0.0000,  0.0000)
  21 Pt     1.403610    2.431119   10.480245    ( 0.0000,  0.0000,  0.0000)
  22 Pt     4.210821    2.431119   10.480258    ( 0.0000,  0.0000,  0.0000)
  23 Pt     7.018032    2.431119   10.480245    ( 0.0000,  0.0000,  0.0000)
  24 Pt     2.807215    4.862235   10.480245    ( 0.0000,  0.0000,  0.0000)
  25 Pt     5.614427    4.862235   10.480245    ( 0.0000,  0.0000,  0.0000)
  26 Pt     8.421642    4.862237   10.480246    ( 0.0000,  0.0000,  0.0000)

Unit cell:
           periodic     x           y           z      points  spacing
  1. axis:    yes    8.421642    0.000000    0.000000    42     0.1737
  2. axis:    yes    4.210821    7.293356    0.000000    42     0.1737
  3. axis:    no     0.000000    0.000000   16.584161    84     0.1974

  Lengths:   8.421642   8.421642  16.584161
  Angles:   90.000000  90.000000  60.000000

Effective grid spacing dv^(1/3) = 0.1901

     iter     time        total  log10-change:
                         energy  eigst   dens
iter:   1 12:55:44  -195.848261  -5.38
iter:   2 12:56:18  -195.848436  -5.24  -3.55
iter:   3 12:56:52  -195.846090c -5.89  -3.43
iter:   4 12:57:25  -195.845966c -7.27  -4.44c
iter:   5 12:57:59  -195.845974c -7.98c -4.62c

Converged after 5 iterations.

Dipole moment: (-0.288407, -0.166512, 0.000436) |e|*Ang

Energy contributions relative to reference atoms: (reference = -13502612.219457)

Kinetic:       -316.712901
Potential:     +252.931108
External:        +0.000000
XC:            -114.734562
Entropy (-ST):   -1.838690
Local:          -16.410274
--------------------------
Free energy:   -196.765319
Extrapolated:  -195.845974

Showing only first 2 kpts
 Kpt  Band  Eigenvalues  Occupancy
  0   214      0.94838    1.49516
  0   215      0.94840    1.49511
  0   216      1.00609    1.24898
  0   217      1.10166    0.78014

  1   214      0.83878    1.79720
  1   215      0.83880    1.79716
  1   216      0.83945    1.79598
  1   217      0.83946    1.79595


Fermi level: 1.05696

No gap

Forces in eV/Ang:
  0 Pt    0.00004    0.00002   -0.00515
  1 Pt    0.00000    0.00005   -0.00501
  2 Pt   -0.00004    0.00002   -0.00515
  3 Pt    0.00004   -0.00002   -0.00501
  4 Pt   -0.00004   -0.00002   -0.00501
  5 Pt   -0.00000   -0.00002   -0.00521
  6 Pt    0.00000   -0.00005   -0.00515
  7 Pt   -0.00002    0.00001   -0.00521
  8 Pt    0.00002    0.00001   -0.00521
  9 Pt    0.00000    0.00001    0.00143
 10 Pt    0.00001    0.00000    0.00142
 11 Pt   -0.00001    0.00000    0.00142
 12 Pt    0.00001   -0.00001    0.00146
 13 Pt    0.00000   -0.00001    0.00142
 14 Pt   -0.00001   -0.00001    0.00146
 15 Pt   -0.00001   -0.00001    0.00143
 16 Pt    0.00001   -0.00001    0.00143
 17 Pt   -0.00000    0.00001    0.00146
 18 Pt    0.00000   -0.00000    0.00369
 19 Pt    0.00000   -0.00003    0.00367
 20 Pt   -0.00000   -0.00003    0.00367
 21 Pt   -0.00003    0.00002    0.00367
 22 Pt    0.00000   -0.00000    0.00365
 23 Pt    0.00003    0.00002    0.00367
 24 Pt   -0.00003    0.00001    0.00367
 25 Pt    0.00003    0.00001    0.00367
 26 Pt    0.00000   -0.00000    0.00372

System changes: positions 

Initializing position-dependent things.

Density initialized from wave functions
                                            
                                            
                                            
                                            
                 Pt     Pt     Pt           
                                            
            Pt    PPt    PPt   Pt           
       Pt     Pt     Pt                     
             Pt     Pt     Pt               
        Pt     Pt    PPt    Pt    Pt        
                                            
                Pt     Pt     Pt            
           Pt     Pt     Pt                 
                                            
                                            
                                            
                                            

Positions:
   0 Pt     1.403626    0.810384    6.103653    ( 0.0000,  0.0000,  0.0000)
   1 Pt     4.210821    0.810402    6.103632    ( 0.0000,  0.0000,  0.0000)
   2 Pt     7.018016    0.810384    6.103653    ( 0.0000,  0.0000,  0.0000)
   3 Pt     2.807239    3.241477    6.103632    ( 0.0000,  0.0000,  0.0000)
   4 Pt     5.614402    3.241477    6.103632    ( 0.0000,  0.0000,  0.0000)
   5 Pt     8.421642    3.241486    6.103658    ( 0.0000,  0.0000,  0.0000)
   6 Pt     4.210821    5.672588    6.103653    ( 0.0000,  0.0000,  0.0000)
   7 Pt     7.018030    5.672613    6.103658    ( 0.0000,  0.0000,  0.0000)
   8 Pt     9.825253    5.672613    6.103658    ( 0.0000,  0.0000,  0.0000)
   9 Pt    -0.000000    1.620742    8.292038    ( 0.0000,  0.0000,  0.0000)
  10 Pt     2.807206    1.620741    8.292038    ( 0.0000,  0.0000,  0.0000)
  11 Pt     5.614435    1.620741    8.292038    ( 0.0000,  0.0000,  0.0000)
  12 Pt     1.403601    4.051868    8.292037    ( 0.0000,  0.0000,  0.0000)
  13 Pt     4.210821    4.051873    8.292038    ( 0.0000,  0.0000,  0.0000)
  14 Pt     7.018040    4.051868    8.292037    ( 0.0000,  0.0000,  0.0000)
  15 Pt     2.807217    6.482985    8.292038    ( 0.0000,  0.0000,  0.0000)
  16 Pt     5.614425    6.482985    8.292038    ( 0.0000,  0.0000,  0.0000)
  17 Pt     8.421642    6.482976    8.292037    ( 0.0000,  0.0000,  0.0000)
  18 Pt    -0.000000   -0.000000   10.480384    ( 0.0000,  0.0000,  0.0000)
  19 Pt     2.807218    0.000003   10.480403    ( 0.0000,  0.0000,  0.0000)
  20 Pt     5.614424    0.000003   10.480403    ( 0.0000,  0.0000,  0.0000)
  21 Pt     1.403612    2.431121   10.480403    ( 0.0000,  0.0000,  0.0000)
  22 Pt     4.210821    2.431119   10.480421    ( 0.0000,  0.0000,  0.0000)
  23 Pt     7.018030    2.431121   10.480403    ( 0.0000,  0.0000,  0.0000)
  24 Pt     2.807215    4.862232   10.480403    ( 0.0000,  0.0000,  0.0000)
  25 Pt     5.614427    4.862232   10.480403    ( 0.0000,  0.0000,  0.0000)
  26 Pt     8.421642    4.862237   10.480404    ( 0.0000,  0.0000,  0.0000)

Unit cell:
           periodic     x           y           z      points  spacing
  1. axis:    yes    8.421642    0.000000    0.000000    42     0.1737
  2. axis:    yes    4.210821    7.293356    0.000000    42     0.1737
  3. axis:    no     0.000000    0.000000   16.584161    84     0.1974

  Lengths:   8.421642   8.421642  16.584161
  Angles:   90.000000  90.000000  60.000000

Effective grid spacing dv^(1/3) = 0.1901

     iter     time        total  log10-change:
                         energy  eigst   dens
iter:   1 12:58:42  -195.846058  -5.68
iter:   2 12:59:15  -195.847612  -5.39  -3.62
iter:   3 12:59:49  -195.845914c -6.03  -3.50
iter:   4 13:00:24  -195.845995c -7.39  -4.43c
iter:   5 13:01:00  -195.846000c -7.44c -4.61c

Converged after 5 iterations.

Dipole moment: (-0.289187, -0.166962, 0.000156) |e|*Ang

Energy contributions relative to reference atoms: (reference = -13502612.219457)

Kinetic:       -315.988589
Potential:     +252.230915
External:        +0.000000
XC:            -114.756359
Entropy (-ST):   -1.838649
Local:          -16.412642
--------------------------
Free energy:   -196.765324
Extrapolated:  -195.846000

Showing only first 2 kpts
 Kpt  Band  Eigenvalues  Occupancy
  0   214      0.94770    1.49453
  0   215      0.94771    1.49448
  0   216      1.00522    1.24906
  0   217      1.10082    0.78008

  1   214      0.83815    1.79680
  1   215      0.83817    1.79676
  1   216      0.83852    1.79611
  1   217      0.83854    1.79608


Fermi level: 1.05611

No gap

Forces in eV/Ang:
  0 Pt   -0.00022   -0.00012   -0.00059
  1 Pt    0.00000   -0.00028   -0.00049
  2 Pt    0.00022   -0.00012   -0.00059
  3 Pt   -0.00024    0.00014   -0.00049
  4 Pt    0.00024    0.00014   -0.00049
  5 Pt    0.00000    0.00001   -0.00057
  6 Pt    0.00000    0.00025   -0.00059
  7 Pt    0.00001   -0.00001   -0.00057
  8 Pt   -0.00001   -0.00001   -0.00057
  9 Pt   -0.00000    0.00010   -0.00012
 10 Pt    0.00019    0.00011   -0.00000
 11 Pt   -0.00019    0.00011   -0.00000
 12 Pt    0.00012   -0.00007   -0.00010
 13 Pt   -0.00000   -0.00022   -0.00000
 14 Pt   -0.00012   -0.00007   -0.00010
 15 Pt   -0.00009   -0.00005   -0.00012
 16 Pt    0.00009   -0.00005   -0.00012
 17 Pt    0.00000    0.00014   -0.00010
 18 Pt    0.00000   -0.00000    0.00019
 19 Pt    0.00005    0.00002   -0.00005
 20 Pt   -0.00005    0.00002   -0.00005
 21 Pt    0.00004    0.00004   -0.00005
 22 Pt    0.00000   -0.00000   -0.00031
 23 Pt   -0.00004    0.00004   -0.00005
 24 Pt   -0.00001   -0.00005   -0.00005
 25 Pt    0.00001   -0.00005   -0.00005
 26 Pt    0.00000   -0.00000   -0.00005

Writing to Assignment 4/output_T3/Pt_111-surface_relaxed.gpaw (mode='')

Timing:                                      incl.     excl.
-------------------------------------------------------------------
Density initialized from wave functions:    13.842    13.595   0.4% |
 Symmetrize density:                         0.246     0.246   0.0% |
Forces:                                     37.064    37.064   1.2% |
Hamiltonian:                                 5.114     0.015   0.0% |
 Atomic:                                     2.807     0.013   0.0% |
  XC Correction:                             2.794     2.794   0.1% |
 Calculate atomic Hamiltonians:              1.432     1.432   0.0% |
 Communicate:                                0.000     0.000   0.0% |
 Initialize Hamiltonian:                     0.001     0.001   0.0% |
 Poisson:                                    0.022     0.022   0.0% |
 XC 3D grid:                                 0.837     0.837   0.0% |
LCAO initialization:                        78.339     0.050   0.0% |
 LCAO eigensolver:                           3.297     0.002   0.0% |
  Calculate projections:                     0.037     0.037   0.0% |
  DenseAtomicCorrection:                     0.029     0.029   0.0% |
  Distribute overlap matrix:                 0.005     0.005   0.0% |
  Orbital Layouts:                           0.178     0.178   0.0% |
  Potential matrix:                          3.020     3.020   0.1% |
  Sum over cells:                            0.027     0.027   0.0% |
 LCAO to grid:                              73.538    73.538   2.3% ||
 Set positions (LCAO WFS):                   1.454     0.177   0.0% |
  Basic WFS set positions:                   0.003     0.003   0.0% |
  Basis functions set positions:             0.000     0.000   0.0% |
  P tci:                                     1.057     1.057   0.0% |
  ST tci:                                    0.197     0.197   0.0% |
  mktci:                                     0.020     0.020   0.0% |
PWDescriptor:                                0.227     0.227   0.0% |
Redistribute:                                0.056     0.056   0.0% |
SCF-cycle:                                3045.862     0.209   0.0% |
 Davidson:                                2776.123   473.536  14.8% |-----|
  Apply H:                                 379.444   367.419  11.5% |----|
   HMM T:                                   12.025    12.025   0.4% |
  Subspace diag:                           532.234     0.079   0.0% |
   calc_h_matrix:                          431.684    54.471   1.7% ||
    Apply H:                               377.213   365.110  11.4% |----|
     HMM T:                                 12.103    12.103   0.4% |
   diagonalize:                             10.584    10.584   0.3% |
   rotate_psi:                              89.887    89.887   2.8% ||
  calc. matrices:                         1091.432   337.466  10.6% |---|
   Apply H:                                753.965   729.910  22.8% |--------|
    HMM T:                                  24.055    24.055   0.8% |
  diagonalize:                             121.901   121.901   3.8% |-|
  rotate_psi:                              177.576   177.576   5.6% |-|
 Density:                                  194.374     0.001   0.0% |
  Atomic density matrices:                   0.977     0.977   0.0% |
  Mix:                                      18.972    18.972   0.6% |
  Multipole moments:                         0.031     0.031   0.0% |
  Pseudo density:                          174.393   170.944   5.3% |-|
   Symmetrize density:                       3.450     3.450   0.1% |
 Hamiltonian:                               61.176     0.184   0.0% |
  Atomic:                                   33.585     0.154   0.0% |
   XC Correction:                           33.430    33.430   1.0% |
  Calculate atomic Hamiltonians:            17.054    17.054   0.5% |
  Communicate:                               0.001     0.001   0.0% |
  Poisson:                                   0.256     0.256   0.0% |
  XC 3D grid:                               10.096    10.096   0.3% |
 Orthonormalize:                            13.981     0.007   0.0% |
  calc_s_matrix:                             2.297     2.297   0.1% |
  inverse-cholesky:                          0.145     0.145   0.0% |
  projections:                               7.621     7.621   0.2% |
  rotate_psi_s:                              3.911     3.911   0.1% |
Set symmetry:                                0.002     0.002   0.0% |
Other:                                      16.100    16.100   0.5% |
-------------------------------------------------------------------
Total:                                              3196.607 100.0%

Memory usage: 1.69 GiB
Date: Thu Feb 16 13:01:06 2023
