
  ___ ___ ___ _ _ _  
 |   |   |_  | | | | 
 | | | | | . | | | | 
 |__ |  _|___|_____|  22.8.0
 |___|_|             

User:   gotols@vera21-4
Date:   Thu Feb 16 15:27:04 2023
Arch:   x86_64
Pid:    2039276
CWD:    /cephyr/users/gotols/Vera/TIF320-Computational-materials-and-molecular-physics-Assignments
Python: 3.10.4
gpaw:   /apps/Arch/software/GPAW/22.8.0-foss-2022a/lib/python3.10/site-packages/gpaw
_gpaw:  /apps/Arch/software/GPAW/22.8.0-foss-2022a/lib/python3.10/site-packages/
        _gpaw.cpython-310-x86_64-linux-gnu.so
ase:    /apps/Arch/software/ASE/3.22.1-foss-2022a/lib/python3.10/site-packages/ase (version 3.22.1)
numpy:  /apps/Arch/software/SciPy-bundle/2022.05-foss-2022a/lib/python3.10/site-packages/numpy (version 1.22.3)
scipy:  /apps/Arch/software/SciPy-bundle/2022.05-foss-2022a/lib/python3.10/site-packages/scipy (version 1.8.1)
libxc:  5.2.3
units:  Angstrom and eV
cores: 16
OpenMP: False
OMP_NUM_THREADS: 1

Input parameters:
  kpts: [4 4 1]
  mode: {ecut: 450.00000000000006,
         name: pw}

System changes: positions, numbers, cell, pbc, initial_charges, initial_magmoms 

Initialize ...

species:
  Pt:
    name: Platinum
    id: 5a6399afde4becbffda6f57f3efd9534
    Z: 78.0
    valence: 16
    core: 62
    charge: 0.0
    file: /apps/Common/software/GPAW-setups/0.9.20000/Pt.LDA.gz
    compensation charges: {type: gauss,
                           rc: 0.41,
                           lmax: 2}
    cutoffs: {filter: 2.26,
              core: 2.26}
    valence states:
      #              energy  rcut
      - 6s(1.00)    -5.930   1.307
      - 5p(6.00)   -56.318   1.371
      - 6p(0.00)    -0.962   1.371
      - 5d(9.00)    -6.387   1.307
      -  s          21.281   1.307
      -  d          20.825   1.307
  
    # Using partial waves for Pt as LCAO basis

Reference energy: -13502612.219457  # eV

Spin-paired calculation

Convergence criteria:
 Maximum [total energy] change in last 3 cyles: 0.0005 eV / electron
 Maximum integral of absolute [dens]ity change: 0.0001 electrons / valence electron
 Maximum integral of absolute [eigenst]ate change: 4e-08 eV^2 / valence electron
 Maximum number of scf [iter]ations: 333
 (Square brackets indicate name in SCF output, whereas a 'c' in
 the SCF output indicates the quantity has converged.)

Symmetries present (total): 6

  ( 1  0  0)  ( 1 -1  0)  ( 0  1  0)  ( 0 -1  0)  (-1  1  0)  (-1  0  0)
  ( 0  1  0)  ( 0 -1  0)  ( 1  0  0)  ( 1 -1  0)  (-1  0  0)  (-1  1  0)
  ( 0  0  1)  ( 0  0  1)  ( 0  0  1)  ( 0  0  1)  ( 0  0  1)  ( 0  0  1)
Note: your k-points are not as symmetric as your crystal!

16 k-points: 4 x 4 x 1 Monkhorst-Pack grid
6 k-points in the irreducible part of the Brillouin zone
       k-points in crystal coordinates                weights
   0:     0.12500000   -0.12500000    0.00000000          2/16
   1:     0.12500000    0.12500000    0.00000000          2/16
   2:     0.37500000   -0.37500000    0.00000000          2/16
   3:     0.37500000   -0.12500000    0.00000000          4/16
   4:     0.37500000    0.12500000    0.00000000          4/16
   5:     0.37500000    0.37500000    0.00000000          2/16

Wave functions: Plane wave expansion
  Cutoff energy: 450.000 eV
  Number of coefficients (min, max): 22059, 22107
  Pulay-stress correction: 0.000000 eV/Ang^3 (de/decut=0.000000)
  Using FFTW library
  ScaLapack parameters: grid=1x1, blocksize=None
  Wavefunction extrapolation:
    Improved wavefunction reuse through dual PAW basis 

Occupation numbers: Fermi-Dirac:
  width: 0.1000  # eV
 

Eigensolver
   Davidson(niter=2) 

Densities:
  Coarse grid: 42*42*84 grid
  Fine grid: 84*84*168 grid
  Total Charge: 0.000000 

Density mixing:
  Method: separate
  Backend: pulay
  Linear mixing parameter: 0.05
  old densities: 5
  Damping of long wavelength oscillations: 50 

Hamiltonian:
  XC and Coulomb potentials evaluated on a 84*84*168 grid
  Using the LDA Exchange-Correlation functional
  External potential:
    NoExternalPotential
 

Memory estimate:
  Process memory now: 303.76 MiB
  Calculator: 386.70 MiB
    Density: 8.00 MiB
      Arrays: 3.67 MiB
      Localized functions: 2.92 MiB
      Mixer: 1.41 MiB
    Hamiltonian: 2.46 MiB
      Arrays: 2.40 MiB
      XC: 0.00 MiB
      Poisson: 0.00 MiB
      vbar: 0.06 MiB
    Wavefunctions: 376.23 MiB
      Arrays psit_nG: 267.16 MiB
      Eigensolver: 101.38 MiB
      Projections: 0.73 MiB
      Projectors: 0.95 MiB
      PW-descriptor: 6.00 MiB

Total number of cores used: 16
Parallelization over k-points: 2
Domain decomposition: 2 x 2 x 2

Number of atoms: 27
Number of atomic orbitals: 324
Number of bands in calculation: 264
Number of valence electrons: 432
Bands to converge: occupied

... initialized

Initializing position-dependent things.

Density initialized from atomic densities
Creating initial wave functions:
  264 bands from LCAO basis set

                                            
                                            
                                            
                                            
                                            
                 Pt     Pt     Pt           
            Pt     Pt     Pt                
       Pt     Pt  Pt Pt  Pt    Pt           
             Pt     Pt     Pt               
        Pt     Pt     Pt                    
                     Pt     Pt    Pt        
                Pt     Pt     Pt            
                                            
           Pt     Pt     Pt                 
                                            
                                            
                                            
                                            

Positions:
   0 Pt     1.403607    0.810373    6.000000    ( 0.0000,  0.0000,  0.0000)
   1 Pt     4.210821    0.810373    6.000000    ( 0.0000,  0.0000,  0.0000)
   2 Pt     7.018035    0.810373    6.000000    ( 0.0000,  0.0000,  0.0000)
   3 Pt     2.807214    3.241491    6.000000    ( 0.0000,  0.0000,  0.0000)
   4 Pt     5.614428    3.241491    6.000000    ( 0.0000,  0.0000,  0.0000)
   5 Pt     8.421642    3.241491    6.000000    ( 0.0000,  0.0000,  0.0000)
   6 Pt     4.210821    5.672610    6.000000    ( 0.0000,  0.0000,  0.0000)
   7 Pt     7.018035    5.672610    6.000000    ( 0.0000,  0.0000,  0.0000)
   8 Pt     9.825249    5.672610    6.000000    ( 0.0000,  0.0000,  0.0000)
   9 Pt    -0.000000    1.620746    8.292081    ( 0.0000,  0.0000,  0.0000)
  10 Pt     2.807214    1.620746    8.292081    ( 0.0000,  0.0000,  0.0000)
  11 Pt     5.614428    1.620746    8.292081    ( 0.0000,  0.0000,  0.0000)
  12 Pt     1.403607    4.051864    8.292081    ( 0.0000,  0.0000,  0.0000)
  13 Pt     4.210821    4.051864    8.292081    ( 0.0000,  0.0000,  0.0000)
  14 Pt     7.018035    4.051864    8.292081    ( 0.0000,  0.0000,  0.0000)
  15 Pt     2.807214    6.482983    8.292081    ( 0.0000,  0.0000,  0.0000)
  16 Pt     5.614428    6.482983    8.292081    ( 0.0000,  0.0000,  0.0000)
  17 Pt     8.421642    6.482983    8.292081    ( 0.0000,  0.0000,  0.0000)
  18 Pt     0.000000    0.000000   10.584161    ( 0.0000,  0.0000,  0.0000)
  19 Pt     2.807214    0.000000   10.584161    ( 0.0000,  0.0000,  0.0000)
  20 Pt     5.614428    0.000000   10.584161    ( 0.0000,  0.0000,  0.0000)
  21 Pt     1.403607    2.431119   10.584161    ( 0.0000,  0.0000,  0.0000)
  22 Pt     4.210821    2.431119   10.584161    ( 0.0000,  0.0000,  0.0000)
  23 Pt     7.018035    2.431119   10.584161    ( 0.0000,  0.0000,  0.0000)
  24 Pt     2.807214    4.862237   10.584161    ( 0.0000,  0.0000,  0.0000)
  25 Pt     5.614428    4.862237   10.584161    ( 0.0000,  0.0000,  0.0000)
  26 Pt     8.421642    4.862237   10.584161    ( 0.0000,  0.0000,  0.0000)

Unit cell:
           periodic     x           y           z      points  spacing
  1. axis:    yes    8.421642    0.000000    0.000000    42     0.1737
  2. axis:    yes    4.210821    7.293356    0.000000    42     0.1737
  3. axis:    no     0.000000    0.000000   16.584161    84     0.1974

  Lengths:   8.421642   8.421642  16.584161
  Angles:   90.000000  90.000000  60.000000

Effective grid spacing dv^(1/3) = 0.1901

     iter     time        total  log10-change:
                         energy  eigst   dens
iter:   1 15:27:27  -208.958684
iter:   2 15:27:34  -206.097624  -1.19  -1.39
iter:   3 15:27:41  -200.492166  -1.69  -1.44
iter:   4 15:27:49  -195.784452  -1.31  -1.58
iter:   5 15:27:56  -195.963607  -2.19  -2.00
iter:   6 15:28:04  -195.481003  -2.76  -2.09
iter:   7 15:28:11  -195.352817  -3.19  -2.26
iter:   8 15:28:19  -195.334269c -3.87  -2.32
iter:   9 15:28:26  -195.229862c -3.09  -2.35
iter:  10 15:28:33  -195.233047c -3.64  -2.99
iter:  11 15:28:41  -195.230385c -4.51  -3.11
iter:  12 15:28:48  -195.231401c -4.87  -3.17
iter:  13 15:28:56  -195.232872c -5.15  -3.13
iter:  14 15:29:03  -195.231900c -5.13  -3.08
iter:  15 15:29:11  -195.231178c -5.24  -3.10
iter:  16 15:29:18  -195.229220c -4.83  -3.12
iter:  17 15:29:26  -195.229637c -6.30  -3.21
iter:  18 15:29:33  -195.234230c -5.04  -3.24
iter:  19 15:29:40  -195.234524c -5.31  -3.45
iter:  20 15:29:48  -195.233988c -5.59  -3.51
iter:  21 15:29:55  -195.233824c -6.67  -3.70
iter:  22 15:30:03  -195.233445c -5.77  -3.78
iter:  23 15:30:10  -195.233006c -6.03  -3.93
iter:  24 15:30:18  -195.232809c -6.48  -3.93
iter:  25 15:30:25  -195.232692c -6.64  -4.13c
iter:  26 15:30:33  -195.232722c -6.76  -4.21c
iter:  27 15:30:40  -195.232659c -6.90  -4.21c
iter:  28 15:30:47  -195.232683c -7.81c -4.86c

Converged after 28 iterations.

Dipole moment: (-0.204217, -0.117905, -0.000008) |e|*Ang

Energy contributions relative to reference atoms: (reference = -13502612.219457)

Kinetic:       -418.294537
Potential:     +339.708761
External:        +0.000000
XC:             -99.668770
Entropy (-ST):   -1.851368
Local:          -16.052453
--------------------------
Free energy:   -196.158367
Extrapolated:  -195.232683

Showing only first 2 kpts
 Kpt  Band  Eigenvalues  Occupancy
  0   214      0.90349    1.32202
  0   215      0.90351    1.32193
  0   216      0.91507    1.26921
  0   217      0.97190    0.99182

  1   214      0.73193    1.83111
  1   215      0.74814    1.80428
  1   216      0.79958    1.69287
  1   217      0.79958    1.69286


Fermi level: 0.97027

No gap

Forces in eV/Ang:
  0 Pt   -0.00001   -0.00000    0.61507
  1 Pt   -0.00000    0.00001    0.61507
  2 Pt    0.00001   -0.00000    0.61507
  3 Pt    0.00001   -0.00000    0.61507
  4 Pt   -0.00001   -0.00000    0.61507
  5 Pt    0.00000    0.00002    0.61507
  6 Pt   -0.00000    0.00001    0.61507
  7 Pt    0.00001   -0.00001    0.61507
  8 Pt   -0.00001   -0.00001    0.61507
  9 Pt   -0.00000   -0.00000    0.00018
 10 Pt    0.00000    0.00000    0.00018
 11 Pt   -0.00000    0.00000    0.00018
 12 Pt   -0.00001    0.00000    0.00018
 13 Pt    0.00000   -0.00000    0.00018
 14 Pt    0.00001    0.00000    0.00018
 15 Pt    0.00000    0.00000    0.00018
 16 Pt   -0.00000    0.00000    0.00018
 17 Pt    0.00000   -0.00001    0.00018
 18 Pt   -0.00000    0.00000   -0.61484
 19 Pt    0.00000   -0.00000   -0.61483
 20 Pt   -0.00000   -0.00000   -0.61483
 21 Pt   -0.00000    0.00000   -0.61483
 22 Pt    0.00000   -0.00000   -0.61484
 23 Pt    0.00000    0.00000   -0.61483
 24 Pt   -0.00000    0.00000   -0.61483
 25 Pt    0.00000    0.00000   -0.61483
 26 Pt   -0.00000    0.00000   -0.61484

System changes: positions 

Initializing position-dependent things.

Density initialized from wave functions
                                            
                                            
                                            
                                            
                 Pt     Pt     Pt           
                                            
            Pt    PPt    PPt   Pt           
       Pt     Pt     Pt                     
             Pt     Pt     Pt               
        Pt     Pt    PPt    Pt    Pt        
                                            
                Pt     Pt     Pt            
           Pt     Pt     Pt                 
                                            
                                            
                                            
                                            

Positions:
   0 Pt     1.403606    0.810372    6.094299    ( 0.0000,  0.0000,  0.0000)
   1 Pt     4.210821    0.810374    6.094299    ( 0.0000,  0.0000,  0.0000)
   2 Pt     7.018036    0.810372    6.094299    ( 0.0000,  0.0000,  0.0000)
   3 Pt     2.807215    3.241491    6.094299    ( 0.0000,  0.0000,  0.0000)
   4 Pt     5.614427    3.241491    6.094299    ( 0.0000,  0.0000,  0.0000)
   5 Pt     8.421642    3.241494    6.094299    ( 0.0000,  0.0000,  0.0000)
   6 Pt     4.210821    5.672611    6.094299    ( 0.0000,  0.0000,  0.0000)
   7 Pt     7.018037    5.672609    6.094299    ( 0.0000,  0.0000,  0.0000)
   8 Pt     9.825247    5.672609    6.094299    ( 0.0000,  0.0000,  0.0000)
   9 Pt    -0.000000    1.620745    8.292108    ( 0.0000,  0.0000,  0.0000)
  10 Pt     2.807214    1.620746    8.292108    ( 0.0000,  0.0000,  0.0000)
  11 Pt     5.614427    1.620746    8.292108    ( 0.0000,  0.0000,  0.0000)
  12 Pt     1.403606    4.051865    8.292108    ( 0.0000,  0.0000,  0.0000)
  13 Pt     4.210821    4.051864    8.292108    ( 0.0000,  0.0000,  0.0000)
  14 Pt     7.018036    4.051865    8.292108    ( 0.0000,  0.0000,  0.0000)
  15 Pt     2.807214    6.482983    8.292108    ( 0.0000,  0.0000,  0.0000)
  16 Pt     5.614428    6.482983    8.292108    ( 0.0000,  0.0000,  0.0000)
  17 Pt     8.421642    6.482982    8.292108    ( 0.0000,  0.0000,  0.0000)
  18 Pt    -0.000000    0.000000   10.489898    ( 0.0000,  0.0000,  0.0000)
  19 Pt     2.807214   -0.000000   10.489899    ( 0.0000,  0.0000,  0.0000)
  20 Pt     5.614428   -0.000000   10.489899    ( 0.0000,  0.0000,  0.0000)
  21 Pt     1.403607    2.431119   10.489899    ( 0.0000,  0.0000,  0.0000)
  22 Pt     4.210821    2.431119   10.489897    ( 0.0000,  0.0000,  0.0000)
  23 Pt     7.018035    2.431119   10.489899    ( 0.0000,  0.0000,  0.0000)
  24 Pt     2.807213    4.862237   10.489899    ( 0.0000,  0.0000,  0.0000)
  25 Pt     5.614428    4.862237   10.489899    ( 0.0000,  0.0000,  0.0000)
  26 Pt     8.421642    4.862237   10.489897    ( 0.0000,  0.0000,  0.0000)

Unit cell:
           periodic     x           y           z      points  spacing
  1. axis:    yes    8.421642    0.000000    0.000000    42     0.1737
  2. axis:    yes    4.210821    7.293356    0.000000    42     0.1737
  3. axis:    no     0.000000    0.000000   16.584161    84     0.1974

  Lengths:   8.421642   8.421642  16.584161
  Angles:   90.000000  90.000000  60.000000

Effective grid spacing dv^(1/3) = 0.1901

     iter     time        total  log10-change:
                         energy  eigst   dens
iter:   1 15:30:57  -212.861820  -0.74
iter:   2 15:31:05  -196.749943  -1.44  -1.41
iter:   3 15:31:12  -196.155005  -2.13  -1.93
iter:   4 15:31:20  -195.956144  -2.88  -2.18
iter:   5 15:31:27  -195.864724  -2.94  -2.29
iter:   6 15:31:34  -195.851609c -3.22  -2.48
iter:   7 15:31:42  -195.844411c -4.08  -2.81
iter:   8 15:31:49  -195.847029c -4.20  -2.97
iter:   9 15:31:57  -195.845310c -5.01  -3.09
iter:  10 15:32:04  -195.837672c -4.58  -3.12
iter:  11 15:32:12  -195.838136c -5.31  -3.54
iter:  12 15:32:19  -195.838791c -5.25  -3.71
iter:  13 15:32:27  -195.838039c -6.19  -3.84
iter:  14 15:32:34  -195.837738c -6.31  -4.06c
iter:  15 15:32:41  -195.837750c -6.77  -4.22c
iter:  16 15:32:49  -195.837774c -7.06  -4.27c
iter:  17 15:32:56  -195.837735c -7.21  -4.48c
iter:  18 15:33:04  -195.837871c -7.53c -4.56c

Converged after 18 iterations.

Dipole moment: (-0.281434, -0.162486, 0.000043) |e|*Ang

Energy contributions relative to reference atoms: (reference = -13502612.219457)

Kinetic:       -327.500497
Potential:     +262.149008
External:        +0.000000
XC:            -113.192998
Entropy (-ST):   -1.843958
Local:          -16.371405
--------------------------
Free energy:   -196.759850
Extrapolated:  -195.837871

Showing only first 2 kpts
 Kpt  Band  Eigenvalues  Occupancy
  0   214      0.94411    1.47603
  0   215      0.94412    1.47598
  0   216      0.99751    1.24569
  0   217      1.09281    0.77807

  1   214      0.82838    1.79922
  1   215      0.82840    1.79920
  1   216      0.83424    1.78840
  1   217      0.83426    1.78837


Fermi level: 1.04768

No gap

Forces in eV/Ang:
  0 Pt    0.00001    0.00000    0.06427
  1 Pt   -0.00000   -0.00001    0.06427
  2 Pt   -0.00001    0.00000    0.06427
  3 Pt   -0.00001    0.00000    0.06427
  4 Pt    0.00001    0.00000    0.06427
  5 Pt    0.00000   -0.00002    0.06427
  6 Pt    0.00000   -0.00001    0.06427
  7 Pt   -0.00002    0.00001    0.06427
  8 Pt    0.00002    0.00001    0.06427
  9 Pt    0.00000    0.00001    0.00014
 10 Pt   -0.00000   -0.00000    0.00014
 11 Pt    0.00000   -0.00000    0.00014
 12 Pt    0.00001   -0.00000    0.00014
 13 Pt    0.00000    0.00000    0.00014
 14 Pt   -0.00001   -0.00000    0.00014
 15 Pt   -0.00000   -0.00000    0.00014
 16 Pt    0.00000   -0.00000    0.00014
 17 Pt    0.00000    0.00001    0.00014
 18 Pt   -0.00000    0.00000   -0.06453
 19 Pt   -0.00000    0.00000   -0.06456
 20 Pt    0.00000    0.00000   -0.06456
 21 Pt    0.00000   -0.00000   -0.06456
 22 Pt    0.00000   -0.00000   -0.06452
 23 Pt   -0.00000   -0.00000   -0.06456
 24 Pt    0.00000    0.00000   -0.06456
 25 Pt   -0.00000    0.00000   -0.06456
 26 Pt    0.00000   -0.00000   -0.06452

System changes: positions 

Initializing position-dependent things.

Density initialized from wave functions
                                            
                                            
                                            
                                            
                 Pt     Pt     Pt           
                                            
            Pt    PPt    PPt   Pt           
       Pt     Pt     Pt                     
             Pt     Pt     Pt               
        Pt     Pt    PPt    Pt    Pt        
                                            
                Pt     Pt     Pt            
           Pt     Pt     Pt                 
                                            
                                            
                                            
                                            

Positions:
   0 Pt     1.403608    0.810373    6.109101    ( 0.0000,  0.0000,  0.0000)
   1 Pt     4.210821    0.810372    6.109102    ( 0.0000,  0.0000,  0.0000)
   2 Pt     7.018034    0.810373    6.109101    ( 0.0000,  0.0000,  0.0000)
   3 Pt     2.807213    3.241492    6.109102    ( 0.0000,  0.0000,  0.0000)
   4 Pt     5.614429    3.241492    6.109102    ( 0.0000,  0.0000,  0.0000)
   5 Pt     8.421642    3.241489    6.109102    ( 0.0000,  0.0000,  0.0000)
   6 Pt     4.210821    5.672609    6.109101    ( 0.0000,  0.0000,  0.0000)
   7 Pt     7.018032    5.672611    6.109102    ( 0.0000,  0.0000,  0.0000)
   8 Pt     9.825251    5.672611    6.109102    ( 0.0000,  0.0000,  0.0000)
   9 Pt    -0.000000    1.620747    8.292146    ( 0.0000,  0.0000,  0.0000)
  10 Pt     2.807213    1.620745    8.292145    ( 0.0000,  0.0000,  0.0000)
  11 Pt     5.614428    1.620745    8.292145    ( 0.0000,  0.0000,  0.0000)
  12 Pt     1.403608    4.051863    8.292145    ( 0.0000,  0.0000,  0.0000)
  13 Pt     4.210821    4.051865    8.292145    ( 0.0000,  0.0000,  0.0000)
  14 Pt     7.018033    4.051863    8.292145    ( 0.0000,  0.0000,  0.0000)
  15 Pt     2.807213    6.482982    8.292146    ( 0.0000,  0.0000,  0.0000)
  16 Pt     5.614429    6.482982    8.292146    ( 0.0000,  0.0000,  0.0000)
  17 Pt     8.421642    6.482985    8.292145    ( 0.0000,  0.0000,  0.0000)
  18 Pt    -0.000000    0.000000   10.475023    ( 0.0000,  0.0000,  0.0000)
  19 Pt     2.807213    0.000000   10.475013    ( 0.0000,  0.0000,  0.0000)
  20 Pt     5.614428    0.000000   10.475013    ( 0.0000,  0.0000,  0.0000)
  21 Pt     1.403607    2.431118   10.475013    ( 0.0000,  0.0000,  0.0000)
  22 Pt     4.210821    2.431119   10.475024    ( 0.0000,  0.0000,  0.0000)
  23 Pt     7.018035    2.431118   10.475013    ( 0.0000,  0.0000,  0.0000)
  24 Pt     2.807214    4.862238   10.475013    ( 0.0000,  0.0000,  0.0000)
  25 Pt     5.614428    4.862238   10.475013    ( 0.0000,  0.0000,  0.0000)
  26 Pt     8.421642    4.862237   10.475024    ( 0.0000,  0.0000,  0.0000)

Unit cell:
           periodic     x           y           z      points  spacing
  1. axis:    yes    8.421642    0.000000    0.000000    42     0.1737
  2. axis:    yes    4.210821    7.293356    0.000000    42     0.1737
  3. axis:    no     0.000000    0.000000   16.584161    84     0.1974

  Lengths:   8.421642   8.421642  16.584161
  Angles:   90.000000  90.000000  60.000000

Effective grid spacing dv^(1/3) = 0.1901

     iter     time        total  log10-change:
                         energy  eigst   dens
iter:   1 15:33:13  -196.409779  -2.29
iter:   2 15:33:21  -195.879239  -2.94  -2.17
iter:   3 15:33:28  -195.856443  -3.72  -2.71
iter:   4 15:33:36  -195.853938c -4.32  -2.92
iter:   5 15:33:43  -195.846652c -4.60  -2.97
iter:   6 15:33:51  -195.844537c -4.48  -3.16
iter:   7 15:33:58  -195.845998c -5.22  -3.34
iter:   8 15:34:06  -195.846648c -5.75  -3.81
iter:   9 15:34:13  -195.846393c -6.49  -3.87
iter:  10 15:34:21  -195.845771c -6.23  -3.98
iter:  11 15:34:28  -195.845747c -6.83  -4.25c
iter:  12 15:34:36  -195.845746c -7.04  -4.35c
iter:  13 15:34:43  -195.845734c -7.92c -4.58c

Converged after 13 iterations.

Dipole moment: (-0.293618, -0.169520, -0.000025) |e|*Ang

Energy contributions relative to reference atoms: (reference = -13502612.219457)

Kinetic:       -310.593209
Potential:     +247.660519
External:        +0.000000
XC:            -115.566557
Entropy (-ST):   -1.835250
Local:          -16.428861
--------------------------
Free energy:   -196.763359
Extrapolated:  -195.845734

Showing only first 2 kpts
 Kpt  Band  Eigenvalues  Occupancy
  0   214      0.94902    1.50531
  0   215      0.94903    1.50527
  0   216      1.00883    1.25185
  0   217      1.10461    0.78204

  1   214      0.83981    1.80138
  1   215      0.83984    1.80134
  1   216      0.84383    1.79407
  1   217      0.84385    1.79403


Fermi level: 1.06030

No gap

Forces in eV/Ang:
  0 Pt   -0.00001   -0.00001   -0.03623
  1 Pt   -0.00000    0.00001   -0.03624
  2 Pt    0.00001   -0.00001   -0.03623
  3 Pt    0.00001   -0.00001   -0.03624
  4 Pt   -0.00001   -0.00001   -0.03624
  5 Pt    0.00000    0.00002   -0.03623
  6 Pt   -0.00000    0.00002   -0.03623
  7 Pt    0.00002   -0.00001   -0.03623
  8 Pt   -0.00002   -0.00001   -0.03623
  9 Pt   -0.00000   -0.00005   -0.00097
 10 Pt    0.00003    0.00002   -0.00095
 11 Pt   -0.00003    0.00002   -0.00095
 12 Pt   -0.00005    0.00003   -0.00096
 13 Pt    0.00000   -0.00004   -0.00095
 14 Pt    0.00005    0.00003   -0.00096
 15 Pt    0.00004    0.00002   -0.00097
 16 Pt   -0.00004    0.00002   -0.00097
 17 Pt   -0.00000   -0.00005   -0.00096
 18 Pt    0.00000   -0.00000    0.03833
 19 Pt    0.00001    0.00000    0.03838
 20 Pt   -0.00001    0.00000    0.03838
 21 Pt    0.00001    0.00000    0.03838
 22 Pt    0.00000   -0.00000    0.03833
 23 Pt   -0.00001    0.00000    0.03838
 24 Pt   -0.00000   -0.00001    0.03838
 25 Pt    0.00000   -0.00001    0.03838
 26 Pt    0.00000   -0.00000    0.03832

System changes: positions 

Initializing position-dependent things.

Density initialized from wave functions
                                            
                                            
                                            
                                            
                 Pt     Pt     Pt           
                                            
            Pt    PPt    PPt   Pt           
       Pt     Pt     Pt                     
             Pt     Pt     Pt               
        Pt     Pt    PPt    Pt    Pt        
                                            
                Pt     Pt     Pt            
           Pt     Pt     Pt                 
                                            
                                            
                                            
                                            

Positions:
   0 Pt     1.403606    0.810372    6.104223    ( 0.0000,  0.0000,  0.0000)
   1 Pt     4.210821    0.810374    6.104222    ( 0.0000,  0.0000,  0.0000)
   2 Pt     7.018036    0.810372    6.104223    ( 0.0000,  0.0000,  0.0000)
   3 Pt     2.807215    3.241491    6.104222    ( 0.0000,  0.0000,  0.0000)
   4 Pt     5.614427    3.241491    6.104222    ( 0.0000,  0.0000,  0.0000)
   5 Pt     8.421642    3.241492    6.104223    ( 0.0000,  0.0000,  0.0000)
   6 Pt     4.210821    5.672611    6.104223    ( 0.0000,  0.0000,  0.0000)
   7 Pt     7.018035    5.672610    6.104223    ( 0.0000,  0.0000,  0.0000)
   8 Pt     9.825249    5.672610    6.104223    ( 0.0000,  0.0000,  0.0000)
   9 Pt    -0.000000    1.620739    8.291996    ( 0.0000,  0.0000,  0.0000)
  10 Pt     2.807219    1.620748    8.291998    ( 0.0000,  0.0000,  0.0000)
  11 Pt     5.614423    1.620748    8.291998    ( 0.0000,  0.0000,  0.0000)
  12 Pt     1.403602    4.051867    8.291997    ( 0.0000,  0.0000,  0.0000)
  13 Pt     4.210821    4.051859    8.291998    ( 0.0000,  0.0000,  0.0000)
  14 Pt     7.018040    4.051867    8.291997    ( 0.0000,  0.0000,  0.0000)
  15 Pt     2.807220    6.482986    8.291996    ( 0.0000,  0.0000,  0.0000)
  16 Pt     5.614422    6.482986    8.291996    ( 0.0000,  0.0000,  0.0000)
  17 Pt     8.421642    6.482977    8.291997    ( 0.0000,  0.0000,  0.0000)
  18 Pt    -0.000000   -0.000000   10.480228    ( 0.0000,  0.0000,  0.0000)
  19 Pt     2.807214    0.000001   10.480224    ( 0.0000,  0.0000,  0.0000)
  20 Pt     5.614428    0.000001   10.480224    ( 0.0000,  0.0000,  0.0000)
  21 Pt     1.403608    2.431118   10.480224    ( 0.0000,  0.0000,  0.0000)
  22 Pt     4.210821    2.431119   10.480229    ( 0.0000,  0.0000,  0.0000)
  23 Pt     7.018034    2.431118   10.480224    ( 0.0000,  0.0000,  0.0000)
  24 Pt     2.807214    4.862237   10.480224    ( 0.0000,  0.0000,  0.0000)
  25 Pt     5.614427    4.862237   10.480224    ( 0.0000,  0.0000,  0.0000)
  26 Pt     8.421642    4.862237   10.480228    ( 0.0000,  0.0000,  0.0000)

Unit cell:
           periodic     x           y           z      points  spacing
  1. axis:    yes    8.421642    0.000000    0.000000    42     0.1737
  2. axis:    yes    4.210821    7.293356    0.000000    42     0.1737
  3. axis:    no     0.000000    0.000000   16.584161    84     0.1974

  Lengths:   8.421642   8.421642  16.584161
  Angles:   90.000000  90.000000  60.000000

Effective grid spacing dv^(1/3) = 0.1901

     iter     time        total  log10-change:
                         energy  eigst   dens
iter:   1 15:34:53  -195.888333  -3.21
iter:   2 15:35:00  -195.847333  -3.89  -2.64
iter:   3 15:35:08  -195.851660c -4.42  -3.12
iter:   4 15:35:15  -195.847539c -5.26  -3.16
iter:   5 15:35:23  -195.846366c -5.31  -3.43
iter:   6 15:35:30  -195.847763c -5.17  -3.59
iter:   7 15:35:37  -195.846263c -6.06  -3.73
iter:   8 15:35:45  -195.845759c -6.37  -4.15c
iter:   9 15:35:52  -195.845963c -7.15  -4.32c
iter:  10 15:36:00  -195.846093c -7.03  -4.41c
iter:  11 15:36:07  -195.846031c -7.84c -4.62c

Converged after 11 iterations.

Dipole moment: (-0.289772, -0.167300, 0.000081) |e|*Ang

Energy contributions relative to reference atoms: (reference = -13502612.219457)

Kinetic:       -315.759922
Potential:     +252.064399
External:        +0.000000
XC:            -114.814759
Entropy (-ST):   -1.838551
Local:          -16.416474
--------------------------
Free energy:   -196.765306
Extrapolated:  -195.846031

Showing only first 2 kpts
 Kpt  Band  Eigenvalues  Occupancy
  0   214      0.94848    1.49536
  0   215      0.94850    1.49532
  0   216      1.00625    1.24899
  0   217      1.10181    0.78014

  1   214      0.83882    1.79740
  1   215      0.83885    1.79736
  1   216      0.83955    1.79607
  1   217      0.83957    1.79603


Fermi level: 1.05711

No gap

Forces in eV/Ang:
  0 Pt   -0.00000   -0.00000   -0.00145
  1 Pt    0.00000    0.00002   -0.00145
  2 Pt    0.00000   -0.00000   -0.00145
  3 Pt    0.00001   -0.00001   -0.00145
  4 Pt   -0.00001   -0.00001   -0.00145
  5 Pt    0.00000    0.00003   -0.00147
  6 Pt    0.00000    0.00000   -0.00145
  7 Pt    0.00002   -0.00001   -0.00147
  8 Pt   -0.00002   -0.00001   -0.00147
  9 Pt   -0.00000    0.00000    0.00221
 10 Pt    0.00001    0.00000    0.00218
 11 Pt   -0.00001    0.00000    0.00218
 12 Pt    0.00001   -0.00001    0.00219
 13 Pt    0.00000   -0.00001    0.00218
 14 Pt   -0.00001   -0.00001    0.00219
 15 Pt   -0.00000   -0.00000    0.00221
 16 Pt    0.00000   -0.00000    0.00221
 17 Pt   -0.00000    0.00001    0.00219
 18 Pt    0.00000   -0.00000   -0.00122
 19 Pt   -0.00000   -0.00001   -0.00147
 20 Pt    0.00000   -0.00001   -0.00147
 21 Pt   -0.00001    0.00000   -0.00147
 22 Pt    0.00000   -0.00000   -0.00123
 23 Pt    0.00001    0.00000   -0.00147
 24 Pt   -0.00001    0.00001   -0.00147
 25 Pt    0.00001    0.00001   -0.00147
 26 Pt   -0.00000   -0.00000   -0.00119

System changes: positions 

Initializing position-dependent things.

Density initialized from wave functions
                                            
                                            
                                            
                                            
                 Pt     Pt     Pt           
                                            
            Pt    PPt    PPt   Pt           
       Pt     Pt     Pt                     
             Pt     Pt     Pt               
        Pt     Pt    PPt    Pt    Pt        
                                            
                Pt     Pt     Pt            
           Pt     Pt     Pt                 
                                            
                                            
                                            
                                            

Positions:
   0 Pt     1.403606    0.810372    6.104089    ( 0.0000,  0.0000,  0.0000)
   1 Pt     4.210821    0.810376    6.104088    ( 0.0000,  0.0000,  0.0000)
   2 Pt     7.018036    0.810372    6.104089    ( 0.0000,  0.0000,  0.0000)
   3 Pt     2.807216    3.241490    6.104088    ( 0.0000,  0.0000,  0.0000)
   4 Pt     5.614425    3.241490    6.104088    ( 0.0000,  0.0000,  0.0000)
   5 Pt     8.421642    3.241495    6.104088    ( 0.0000,  0.0000,  0.0000)
   6 Pt     4.210821    5.672612    6.104089    ( 0.0000,  0.0000,  0.0000)
   7 Pt     7.018038    5.672608    6.104088    ( 0.0000,  0.0000,  0.0000)
   8 Pt     9.825246    5.672608    6.104088    ( 0.0000,  0.0000,  0.0000)
   9 Pt    -0.000000    1.620738    8.292218    ( 0.0000,  0.0000,  0.0000)
  10 Pt     2.807220    1.620749    8.292216    ( 0.0000,  0.0000,  0.0000)
  11 Pt     5.614421    1.620749    8.292216    ( 0.0000,  0.0000,  0.0000)
  12 Pt     1.403601    4.051868    8.292217    ( 0.0000,  0.0000,  0.0000)
  13 Pt     4.210821    4.051857    8.292216    ( 0.0000,  0.0000,  0.0000)
  14 Pt     7.018041    4.051868    8.292217    ( 0.0000,  0.0000,  0.0000)
  15 Pt     2.807221    6.482987    8.292218    ( 0.0000,  0.0000,  0.0000)
  16 Pt     5.614421    6.482987    8.292218    ( 0.0000,  0.0000,  0.0000)
  17 Pt     8.421642    6.482976    8.292217    ( 0.0000,  0.0000,  0.0000)
  18 Pt    -0.000000   -0.000000   10.480127    ( 0.0000,  0.0000,  0.0000)
  19 Pt     2.807214   -0.000000   10.480093    ( 0.0000,  0.0000,  0.0000)
  20 Pt     5.614428   -0.000000   10.480093    ( 0.0000,  0.0000,  0.0000)
  21 Pt     1.403607    2.431119   10.480093    ( 0.0000,  0.0000,  0.0000)
  22 Pt     4.210821    2.431119   10.480126    ( 0.0000,  0.0000,  0.0000)
  23 Pt     7.018035    2.431119   10.480093    ( 0.0000,  0.0000,  0.0000)
  24 Pt     2.807213    4.862237   10.480093    ( 0.0000,  0.0000,  0.0000)
  25 Pt     5.614428    4.862237   10.480093    ( 0.0000,  0.0000,  0.0000)
  26 Pt     8.421642    4.862237   10.480129    ( 0.0000,  0.0000,  0.0000)

Unit cell:
           periodic     x           y           z      points  spacing
  1. axis:    yes    8.421642    0.000000    0.000000    42     0.1737
  2. axis:    yes    4.210821    7.293356    0.000000    42     0.1737
  3. axis:    no     0.000000    0.000000   16.584161    84     0.1974

  Lengths:   8.421642   8.421642  16.584161
  Angles:   90.000000  90.000000  60.000000

Effective grid spacing dv^(1/3) = 0.1901

     iter     time        total  log10-change:
                         energy  eigst   dens
iter:   1 15:36:17  -195.847561  -5.51
iter:   2 15:36:25  -195.849588  -5.15  -3.51
iter:   3 15:36:32  -195.846040c -5.76  -3.35
iter:   4 15:36:40  -195.846034c -6.99  -4.41c
iter:   5 15:36:47  -195.846074c -7.51c -4.62c

Converged after 5 iterations.

Dipole moment: (-0.289504, -0.167145, 0.000348) |e|*Ang

Energy contributions relative to reference atoms: (reference = -13502612.219457)

Kinetic:       -316.006055
Potential:     +252.284078
External:        +0.000000
XC:            -114.791184
Entropy (-ST):   -1.838469
Local:          -16.413678
--------------------------
Free energy:   -196.765309
Extrapolated:  -195.846074

Showing only first 2 kpts
 Kpt  Band  Eigenvalues  Occupancy
  0   214      0.94803    1.49531
  0   215      0.94804    1.49527
  0   216      1.00573    1.24919
  0   217      1.10133    0.78021

  1   214      0.83847    1.79719
  1   215      0.83849    1.79715
  1   216      0.83913    1.79598
  1   217      0.83916    1.79592


Fermi level: 1.05664

No gap

Forces in eV/Ang:
  0 Pt   -0.00002   -0.00001   -0.00250
  1 Pt    0.00000    0.00002   -0.00248
  2 Pt    0.00002   -0.00001   -0.00250
  3 Pt    0.00002   -0.00001   -0.00248
  4 Pt   -0.00002   -0.00001   -0.00248
  5 Pt    0.00000    0.00002   -0.00249
  6 Pt    0.00000    0.00002   -0.00250
  7 Pt    0.00002   -0.00001   -0.00249
  8 Pt   -0.00002   -0.00001   -0.00249
  9 Pt    0.00000   -0.00006   -0.00040
 10 Pt    0.00005    0.00003   -0.00038
 11 Pt   -0.00005    0.00003   -0.00038
 12 Pt   -0.00005    0.00003   -0.00038
 13 Pt    0.00000   -0.00006   -0.00038
 14 Pt    0.00005    0.00003   -0.00038
 15 Pt    0.00005    0.00003   -0.00040
 16 Pt   -0.00005    0.00003   -0.00040
 17 Pt    0.00000   -0.00006   -0.00038
 18 Pt   -0.00000   -0.00000    0.00354
 19 Pt   -0.00000   -0.00001    0.00339
 20 Pt    0.00000   -0.00001    0.00339
 21 Pt   -0.00001    0.00000    0.00339
 22 Pt    0.00000   -0.00000    0.00354
 23 Pt    0.00001    0.00000    0.00339
 24 Pt   -0.00001    0.00000    0.00339
 25 Pt    0.00001    0.00000    0.00339
 26 Pt    0.00000   -0.00000    0.00355

System changes: positions 

Initializing position-dependent things.

Density initialized from wave functions
                                            
                                            
                                            
                                            
                 Pt     Pt     Pt           
                                            
            Pt    PPt    PPt   Pt           
       Pt     Pt     Pt                     
             Pt     Pt     Pt               
        Pt     Pt    PPt    Pt    Pt        
                                            
                Pt     Pt     Pt            
           Pt     Pt     Pt                 
                                            
                                            
                                            
                                            

Positions:
   0 Pt     1.403603    0.810370    6.103906    ( 0.0000,  0.0000,  0.0000)
   1 Pt     4.210821    0.810379    6.103907    ( 0.0000,  0.0000,  0.0000)
   2 Pt     7.018039    0.810370    6.103906    ( 0.0000,  0.0000,  0.0000)
   3 Pt     2.807219    3.241488    6.103907    ( 0.0000,  0.0000,  0.0000)
   4 Pt     5.614423    3.241488    6.103907    ( 0.0000,  0.0000,  0.0000)
   5 Pt     8.421642    3.241499    6.103905    ( 0.0000,  0.0000,  0.0000)
   6 Pt     4.210821    5.672615    6.103906    ( 0.0000,  0.0000,  0.0000)
   7 Pt     7.018041    5.672606    6.103905    ( 0.0000,  0.0000,  0.0000)
   8 Pt     9.825243    5.672606    6.103905    ( 0.0000,  0.0000,  0.0000)
   9 Pt    -0.000000    1.620729    8.292217    ( 0.0000,  0.0000,  0.0000)
  10 Pt     2.807229    1.620754    8.292218    ( 0.0000,  0.0000,  0.0000)
  11 Pt     5.614413    1.620754    8.292218    ( 0.0000,  0.0000,  0.0000)
  12 Pt     1.403593    4.051872    8.292218    ( 0.0000,  0.0000,  0.0000)
  13 Pt     4.210821    4.051847    8.292218    ( 0.0000,  0.0000,  0.0000)
  14 Pt     7.018049    4.051872    8.292218    ( 0.0000,  0.0000,  0.0000)
  15 Pt     2.807228    6.482991    8.292217    ( 0.0000,  0.0000,  0.0000)
  16 Pt     5.614413    6.482991    8.292217    ( 0.0000,  0.0000,  0.0000)
  17 Pt     8.421642    6.482967    8.292218    ( 0.0000,  0.0000,  0.0000)
  18 Pt    -0.000000   -0.000000   10.480395    ( 0.0000,  0.0000,  0.0000)
  19 Pt     2.807214   -0.000002   10.480331    ( 0.0000,  0.0000,  0.0000)
  20 Pt     5.614428   -0.000002   10.480331    ( 0.0000,  0.0000,  0.0000)
  21 Pt     1.403605    2.431120   10.480331    ( 0.0000,  0.0000,  0.0000)
  22 Pt     4.210821    2.431119   10.480394    ( 0.0000,  0.0000,  0.0000)
  23 Pt     7.018037    2.431120   10.480331    ( 0.0000,  0.0000,  0.0000)
  24 Pt     2.807212    4.862238   10.480331    ( 0.0000,  0.0000,  0.0000)
  25 Pt     5.614430    4.862238   10.480331    ( 0.0000,  0.0000,  0.0000)
  26 Pt     8.421642    4.862237   10.480400    ( 0.0000,  0.0000,  0.0000)

Unit cell:
           periodic     x           y           z      points  spacing
  1. axis:    yes    8.421642    0.000000    0.000000    42     0.1737
  2. axis:    yes    4.210821    7.293356    0.000000    42     0.1737
  3. axis:    no     0.000000    0.000000   16.584161    84     0.1974

  Lengths:   8.421642   8.421642  16.584161
  Angles:   90.000000  90.000000  60.000000

Effective grid spacing dv^(1/3) = 0.1901

     iter     time        total  log10-change:
                         energy  eigst   dens
iter:   1 15:36:58  -195.845294  -5.84
iter:   2 15:37:05  -195.845865  -6.58  -3.99
iter:   3 15:37:12  -195.846004c -7.10  -4.45c
iter:   4 15:37:20  -195.846002c -7.79c -4.40c

Converged after 4 iterations.

Dipole moment: (-0.290292, -0.167600, -0.000413) |e|*Ang

Energy contributions relative to reference atoms: (reference = -13502612.219457)

Kinetic:       -315.899671
Potential:     +252.160894
External:        +0.000000
XC:            -114.773963
Entropy (-ST):   -1.838640
Local:          -16.413940
--------------------------
Free energy:   -196.765322
Extrapolated:  -195.846002

Showing only first 2 kpts
 Kpt  Band  Eigenvalues  Occupancy
  0   214      0.94719    1.49515
  0   215      0.94720    1.49511
  0   216      1.00489    1.24901
  0   217      1.10050    0.77998

  1   214      0.83773    1.79693
  1   215      0.83779    1.79682
  1   216      0.83829    1.79591
  1   217      0.83836    1.79578


Fermi level: 1.05576

No gap

Forces in eV/Ang:
  0 Pt    0.00001    0.00001    0.00013
  1 Pt    0.00000   -0.00008    0.00010
  2 Pt   -0.00001    0.00001    0.00013
  3 Pt   -0.00007    0.00004    0.00010
  4 Pt    0.00007    0.00004    0.00010
  5 Pt    0.00000   -0.00011    0.00016
  6 Pt   -0.00000   -0.00002    0.00013
  7 Pt   -0.00009    0.00005    0.00016
  8 Pt    0.00009    0.00005    0.00016
  9 Pt    0.00000    0.00021   -0.00703
 10 Pt   -0.00017   -0.00010   -0.00700
 11 Pt    0.00017   -0.00010   -0.00700
 12 Pt    0.00014   -0.00008   -0.00700
 13 Pt    0.00000    0.00020   -0.00700
 14 Pt   -0.00014   -0.00008   -0.00700
 15 Pt   -0.00018   -0.00011   -0.00703
 16 Pt    0.00018   -0.00011   -0.00703
 17 Pt    0.00000    0.00017   -0.00700
 18 Pt   -0.00000   -0.00000    0.00781
 19 Pt    0.00001    0.00002    0.00909
 20 Pt   -0.00001    0.00002    0.00909
 21 Pt    0.00002   -0.00000    0.00909
 22 Pt    0.00000   -0.00000    0.00778
 23 Pt   -0.00002   -0.00000    0.00909
 24 Pt    0.00001   -0.00002    0.00909
 25 Pt   -0.00001   -0.00002    0.00909
 26 Pt   -0.00000   -0.00000    0.00769

System changes: positions 

Initializing position-dependent things.

Density initialized from wave functions
                                            
                                            
                                            
                                            
                 Pt     Pt     Pt           
                                            
            Pt    PPt    PPt   Pt           
       Pt     Pt     Pt                     
             Pt     Pt     Pt               
        Pt     Pt    PPt    Pt    Pt        
                                            
                Pt     Pt     Pt            
           Pt     Pt     Pt                 
                                            
                                            
                                            
                                            

Positions:
   0 Pt     1.397247    0.806701    6.137695    ( 0.0000,  0.0000,  0.0000)
   1 Pt     4.210821    0.816584    6.140616    ( 0.0000,  0.0000,  0.0000)
   2 Pt     7.024395    0.806701    6.137695    ( 0.0000,  0.0000,  0.0000)
   3 Pt     2.812593    3.238386    6.140616    ( 0.0000,  0.0000,  0.0000)
   4 Pt     5.609049    3.238386    6.140616    ( 0.0000,  0.0000,  0.0000)
   5 Pt     8.421642    3.250171    6.136868    ( 0.0000,  0.0000,  0.0000)
   6 Pt     4.210821    5.679954    6.137695    ( 0.0000,  0.0000,  0.0000)
   7 Pt     7.025552    5.668270    6.136868    ( 0.0000,  0.0000,  0.0000)
   8 Pt     9.817732    5.668270    6.136868    ( 0.0000,  0.0000,  0.0000)
   9 Pt    -0.000000    1.614704    8.352062    ( 0.0000,  0.0000,  0.0000)
  10 Pt     2.817026    1.626411    8.350666    ( 0.0000,  0.0000,  0.0000)
  11 Pt     5.604616    1.626411    8.350666    ( 0.0000,  0.0000,  0.0000)
  12 Pt     1.396383    4.056035    8.351975    ( 0.0000,  0.0000,  0.0000)
  13 Pt     4.210821    4.040534    8.350666    ( 0.0000,  0.0000,  0.0000)
  14 Pt     7.025259    4.056035    8.351975    ( 0.0000,  0.0000,  0.0000)
  15 Pt     2.812446    6.486004    8.352062    ( 0.0000,  0.0000,  0.0000)
  16 Pt     5.609195    6.486004    8.352062    ( 0.0000,  0.0000,  0.0000)
  17 Pt     8.421642    6.474641    8.351975    ( 0.0000,  0.0000,  0.0000)
  18 Pt    -0.000000   -0.000000   10.591030    ( 0.0000,  0.0000,  0.0000)
  19 Pt     2.807046   -0.005333   10.541030    ( 0.0000,  0.0000,  0.0000)
  20 Pt     5.614596   -0.005333   10.541030    ( 0.0000,  0.0000,  0.0000)
  21 Pt     1.398905    2.433639   10.541030    ( 0.0000,  0.0000,  0.0000)
  22 Pt     4.210821    2.431119   10.583378    ( 0.0000,  0.0000,  0.0000)
  23 Pt     7.022737    2.433639   10.541030    ( 0.0000,  0.0000,  0.0000)
  24 Pt     2.802680    4.865049   10.541030    ( 0.0000,  0.0000,  0.0000)
  25 Pt     5.618962    4.865049   10.541030    ( 0.0000,  0.0000,  0.0000)
  26 Pt     8.421642    4.862237   10.593890    ( 0.0000,  0.0000,  0.0000)

Unit cell:
           periodic     x           y           z      points  spacing
  1. axis:    yes    8.421642    0.000000    0.000000    42     0.1737
  2. axis:    yes    4.210821    7.293356    0.000000    42     0.1737
  3. axis:    no     0.000000    0.000000   16.584161    84     0.1974

  Lengths:   8.421642   8.421642  16.584161
  Angles:   90.000000  90.000000  60.000000

Effective grid spacing dv^(1/3) = 0.1901

     iter     time        total  log10-change:
                         energy  eigst   dens
iter:   1 15:37:30  -229.973597  -0.95
iter:   2 15:37:37  -216.559926  -0.85  -1.33
iter:   3 15:37:45  -196.720802  -1.81  -1.53
iter:   4 15:37:52  -196.135659  -3.06  -2.10
iter:   5 15:37:59  -195.935207  -3.24  -2.28
iter:   6 15:38:07  -195.876027  -3.16  -2.39
iter:   7 15:38:14  -195.812576c -3.52  -2.60
iter:   8 15:38:22  -195.804705c -4.45  -2.73
iter:   9 15:38:29  -195.796735c -4.37  -2.83
iter:  10 15:38:37  -195.794601c -4.70  -3.12
iter:  11 15:38:44  -195.793731c -5.04  -3.30
iter:  12 15:38:52  -195.793611c -5.57  -3.36
iter:  13 15:38:59  -195.793918c -5.20  -3.41
iter:  14 15:39:06  -195.794202c -5.86  -3.78
iter:  15 15:39:14  -195.794312c -6.45  -3.84
iter:  16 15:39:21  -195.794377c -6.47  -3.88
iter:  17 15:39:29  -195.794574c -6.58  -4.12c
iter:  18 15:39:36  -195.794654c -7.16  -4.25c
iter:  19 15:39:44  -195.794760c -7.18  -4.28c
iter:  20 15:39:51  -195.794789c -7.72c -4.31c

Converged after 20 iterations.

Dipole moment: (0.449600, 0.259577, -0.000583) |e|*Ang

Energy contributions relative to reference atoms: (reference = -13502612.219457)

Kinetic:       -339.755111
Potential:     +272.666206
External:        +0.000000
XC:            -111.450305
Entropy (-ST):   -1.847186
Local:          -16.331987
--------------------------
Free energy:   -196.718382
Extrapolated:  -195.794789

Showing only first 2 kpts
 Kpt  Band  Eigenvalues  Occupancy
  0   214      0.94180    1.45361
  0   215      0.94184    1.45347
  0   216      0.99132    1.23706
  0   217      1.08151    0.79374

  1   214      0.81074    1.81594
  1   215      0.82203    1.79619
  1   216      0.82695    1.78701
  1   217      0.84403    1.75224


Fermi level: 1.03965

No gap

Forces in eV/Ang:
  0 Pt    0.04340    0.02505    0.19927
  1 Pt    0.00000   -0.05485    0.14740
  2 Pt   -0.04340    0.02505    0.19927
  3 Pt   -0.04750    0.02742    0.14740
  4 Pt    0.04750    0.02742    0.14740
  5 Pt    0.00000   -0.06219    0.18501
  6 Pt    0.00000   -0.05011    0.19927
  7 Pt   -0.05386    0.03110    0.18501
  8 Pt    0.05386    0.03110    0.18501
  9 Pt    0.00000   -0.01060   -0.05702
 10 Pt   -0.07153   -0.04130   -0.00713
 11 Pt    0.07153   -0.04130   -0.00713
 12 Pt    0.01343   -0.00776   -0.04112
 13 Pt    0.00000    0.08259   -0.00713
 14 Pt   -0.01343   -0.00776   -0.04112
 15 Pt    0.00918    0.00530   -0.05702
 16 Pt   -0.00918    0.00530   -0.05702
 17 Pt    0.00000    0.01551   -0.04112
 18 Pt    0.00000    0.00000   -0.31254
 19 Pt   -0.00188    0.04392   -0.00267
 20 Pt    0.00188    0.04392   -0.00267
 21 Pt    0.03709   -0.02359   -0.00267
 22 Pt   -0.00000   -0.00000   -0.26143
 23 Pt   -0.03709   -0.02359   -0.00267
 24 Pt    0.03897   -0.02033   -0.00267
 25 Pt   -0.03897   -0.02033   -0.00267
 26 Pt    0.00000    0.00000   -0.30908

System changes: positions 

Initializing position-dependent things.

Density initialized from wave functions
                                            
                                            
                                            
                                            
                 Pt     Pt     Pt           
                                            
            Pt    PPt    PPt   Pt           
       Pt     Pt     Pt                     
             Pt     Pt     Pt               
        Pt     Pt    PPt    Pt    Pt        
                                            
                Pt     Pt     Pt            
           Pt     Pt     Pt                 
                                            
                                            
                                            
                                            

Positions:
   0 Pt     1.403603    0.810370    6.103874    ( 0.0000,  0.0000,  0.0000)
   1 Pt     4.210821    0.810374    6.103866    ( 0.0000,  0.0000,  0.0000)
   2 Pt     7.018039    0.810370    6.103874    ( 0.0000,  0.0000,  0.0000)
   3 Pt     2.807215    3.241491    6.103866    ( 0.0000,  0.0000,  0.0000)
   4 Pt     5.614427    3.241491    6.103866    ( 0.0000,  0.0000,  0.0000)
   5 Pt     8.421642    3.241496    6.103868    ( 0.0000,  0.0000,  0.0000)
   6 Pt     4.210821    5.672615    6.103874    ( 0.0000,  0.0000,  0.0000)
   7 Pt     7.018038    5.672608    6.103868    ( 0.0000,  0.0000,  0.0000)
   8 Pt     9.825245    5.672608    6.103868    ( 0.0000,  0.0000,  0.0000)
   9 Pt    -0.000000    1.620713    8.292187    ( 0.0000,  0.0000,  0.0000)
  10 Pt     2.807228    1.620754    8.292202    ( 0.0000,  0.0000,  0.0000)
  11 Pt     5.614414    1.620754    8.292202    ( 0.0000,  0.0000,  0.0000)
  12 Pt     1.403582    4.051879    8.292194    ( 0.0000,  0.0000,  0.0000)
  13 Pt     4.210821    4.051848    8.292202    ( 0.0000,  0.0000,  0.0000)
  14 Pt     7.018060    4.051879    8.292194    ( 0.0000,  0.0000,  0.0000)
  15 Pt     2.807242    6.482999    8.292187    ( 0.0000,  0.0000,  0.0000)
  16 Pt     5.614400    6.482999    8.292187    ( 0.0000,  0.0000,  0.0000)
  17 Pt     8.421642    6.482954    8.292194    ( 0.0000,  0.0000,  0.0000)
  18 Pt    -0.000000   -0.000000   10.480789    ( 0.0000,  0.0000,  0.0000)
  19 Pt     2.807213    0.000001   10.480729    ( 0.0000,  0.0000,  0.0000)
  20 Pt     5.614429    0.000001   10.480729    ( 0.0000,  0.0000,  0.0000)
  21 Pt     1.403607    2.431117   10.480729    ( 0.0000,  0.0000,  0.0000)
  22 Pt     4.210821    2.431119   10.480790    ( 0.0000,  0.0000,  0.0000)
  23 Pt     7.018035    2.431117   10.480729    ( 0.0000,  0.0000,  0.0000)
  24 Pt     2.807215    4.862238   10.480729    ( 0.0000,  0.0000,  0.0000)
  25 Pt     5.614427    4.862238   10.480729    ( 0.0000,  0.0000,  0.0000)
  26 Pt     8.421642    4.862237   10.480800    ( 0.0000,  0.0000,  0.0000)

Unit cell:
           periodic     x           y           z      points  spacing
  1. axis:    yes    8.421642    0.000000    0.000000    42     0.1737
  2. axis:    yes    4.210821    7.293356    0.000000    42     0.1737
  3. axis:    no     0.000000    0.000000   16.584161    84     0.1974

  Lengths:   8.421642   8.421642  16.584161
  Angles:   90.000000  90.000000  60.000000

Effective grid spacing dv^(1/3) = 0.1901

     iter     time        total  log10-change:
                         energy  eigst   dens
iter:   1 15:40:01  -217.703444  -0.99
iter:   2 15:40:08  -208.557119  -1.13  -1.48
iter:   3 15:40:16  -196.765014  -2.10  -1.65
iter:   4 15:40:23  -196.334285  -3.13  -2.07
iter:   5 15:40:30  -195.907905  -2.85  -2.18
iter:   6 15:40:38  -195.870307  -3.65  -2.45
iter:   7 15:40:45  -195.850986c -3.62  -2.60
iter:   8 15:40:53  -195.851155c -4.36  -2.82
iter:   9 15:41:00  -195.847174c -4.58  -3.03
iter:  10 15:41:08  -195.847716c -4.99  -3.31
iter:  11 15:41:15  -195.846655c -5.53  -3.46
iter:  12 15:41:22  -195.846213c -5.84  -3.55
iter:  13 15:41:30  -195.845927c -5.55  -3.64
iter:  14 15:41:37  -195.845824c -6.38  -4.01c
iter:  15 15:41:45  -195.845845c -6.86  -4.06c
iter:  16 15:41:52  -195.845863c -7.04  -4.10c
iter:  17 15:42:00  -195.845970c -7.04  -4.18c
iter:  18 15:42:07  -195.845969c -7.66c -4.27c

Converged after 18 iterations.

Dipole moment: (-0.289153, -0.166943, 0.001727) |e|*Ang

Energy contributions relative to reference atoms: (reference = -13502612.219457)

Kinetic:       -317.178764
Potential:     +253.322546
External:        +0.000000
XC:            -114.669426
Entropy (-ST):   -1.838711
Local:          -16.400969
--------------------------
Free energy:   -196.765325
Extrapolated:  -195.845969

Showing only first 2 kpts
 Kpt  Band  Eigenvalues  Occupancy
  0   214      0.94792    1.49449
  0   215      0.94794    1.49441
  0   216      1.00547    1.24889
  0   217      1.10104    0.78004

  1   214      0.83830    1.79690
  1   215      0.83836    1.79680
  1   216      0.83873    1.79611
  1   217      0.83878    1.79603


Fermi level: 1.05631

No gap

Forces in eV/Ang:
  0 Pt    0.00352    0.00203    0.00785
  1 Pt   -0.00000   -0.00368    0.00644
  2 Pt   -0.00352    0.00203    0.00785
  3 Pt   -0.00319    0.00184    0.00644
  4 Pt    0.00319    0.00184    0.00644
  5 Pt    0.00000   -0.00443    0.00687
  6 Pt    0.00000   -0.00407    0.00785
  7 Pt   -0.00384    0.00221    0.00687
  8 Pt    0.00384    0.00221    0.00687
  9 Pt    0.00000    0.00041   -0.00235
 10 Pt   -0.00291   -0.00168   -0.00136
 11 Pt    0.00291   -0.00168   -0.00136
 12 Pt    0.00094   -0.00054   -0.00249
 13 Pt    0.00000    0.00336   -0.00136
 14 Pt   -0.00094   -0.00054   -0.00249
 15 Pt   -0.00036   -0.00021   -0.00235
 16 Pt    0.00036   -0.00021   -0.00235
 17 Pt    0.00000    0.00108   -0.00249
 18 Pt    0.00000   -0.00000   -0.00119
 19 Pt   -0.00021    0.00269   -0.00092
 20 Pt    0.00021    0.00269   -0.00092
 21 Pt    0.00223   -0.00153   -0.00092
 22 Pt    0.00000   -0.00000   -0.00034
 23 Pt   -0.00223   -0.00153   -0.00092
 24 Pt    0.00244   -0.00116   -0.00092
 25 Pt   -0.00244   -0.00116   -0.00092
 26 Pt   -0.00000   -0.00000   -0.00156

System changes: positions 

Initializing position-dependent things.

Density initialized from wave functions
                                            
                                            
                                            
                                            
                 Pt    Pt                   
                              Pt            
            Pt    PPt   PPt    Pt           
       Pt     Pt    PPt                     
             Pt           Pt                
        Pt     Pt   PtPt   Pt      Pt       
                                            
                Pt     Pt    Pt             
           Pt     Pt    Pt                  
                                            
                                            
                                            
                                            

Positions:
   0 Pt     1.489731    0.860097    6.202604    ( 0.0000,  0.0000,  0.0000)
   1 Pt     4.210821    0.715872    6.153793    ( 0.0000,  0.0000,  0.0000)
   2 Pt     6.931911    0.860097    6.202604    ( 0.0000,  0.0000,  0.0000)
   3 Pt     2.725374    3.288742    6.153793    ( 0.0000,  0.0000,  0.0000)
   4 Pt     5.696268    3.288742    6.153793    ( 0.0000,  0.0000,  0.0000)
   5 Pt     8.421642    3.129796    6.176447    ( 0.0000,  0.0000,  0.0000)
   6 Pt     4.210821    5.573162    6.202604    ( 0.0000,  0.0000,  0.0000)
   7 Pt     6.921304    5.728458    6.176447    ( 0.0000,  0.0000,  0.0000)
   8 Pt     9.921980    5.728458    6.176447    ( 0.0000,  0.0000,  0.0000)
   9 Pt    -0.000000    1.610190    8.314136    ( 0.0000,  0.0000,  0.0000)
  10 Pt     2.727559    1.574757    8.362041    ( 0.0000,  0.0000,  0.0000)
  11 Pt     5.694082    1.574757    8.362041    ( 0.0000,  0.0000,  0.0000)
  12 Pt     1.416614    4.044355    8.322109    ( 0.0000,  0.0000,  0.0000)
  13 Pt     4.210821    4.143841    8.362041    ( 0.0000,  0.0000,  0.0000)
  14 Pt     7.005028    4.044355    8.322109    ( 0.0000,  0.0000,  0.0000)
  15 Pt     2.816355    6.488261    8.314136    ( 0.0000,  0.0000,  0.0000)
  16 Pt     5.605287    6.488261    8.314136    ( 0.0000,  0.0000,  0.0000)
  17 Pt     8.421642    6.498002    8.322109    ( 0.0000,  0.0000,  0.0000)
  18 Pt    -0.000000   -0.000000   10.439786    ( 0.0000,  0.0000,  0.0000)
  19 Pt     2.801300    0.071385   10.536378    ( 0.0000,  0.0000,  0.0000)
  20 Pt     5.620342    0.071385   10.536378    ( 0.0000,  0.0000,  0.0000)
  21 Pt     1.462471    2.390304   10.536378    ( 0.0000,  0.0000,  0.0000)
  22 Pt     4.210821    2.431119   10.480068    ( 0.0000,  0.0000,  0.0000)
  23 Pt     6.959171    2.390304   10.536378    ( 0.0000,  0.0000,  0.0000)
  24 Pt     2.871992    4.831667   10.536378    ( 0.0000,  0.0000,  0.0000)
  25 Pt     5.549649    4.831667   10.536378    ( 0.0000,  0.0000,  0.0000)
  26 Pt     8.421642    4.862237   10.439812    ( 0.0000,  0.0000,  0.0000)

Unit cell:
           periodic     x           y           z      points  spacing
  1. axis:    yes    8.421642    0.000000    0.000000    42     0.1737
  2. axis:    yes    4.210821    7.293356    0.000000    42     0.1737
  3. axis:    no     0.000000    0.000000   16.584161    84     0.1974

  Lengths:   8.421642   8.421642  16.584161
  Angles:   90.000000  90.000000  60.000000

Effective grid spacing dv^(1/3) = 0.1901

     iter     time        total  log10-change:
                         energy  eigst   dens
iter:   1 15:42:17  -212.911454  -0.66
iter:   2 15:42:24  -205.875612  -1.20  -1.47
iter:   3 15:42:32  -196.252580  -1.97  -1.63
iter:   4 15:42:39  -195.435291  -2.65  -1.92
iter:   5 15:42:46  -195.278764  -3.02  -2.10
iter:   6 15:42:54  -195.159313  -2.85  -2.16
iter:   7 15:43:01  -195.010104  -3.03  -2.34
iter:   8 15:43:09  -194.991218c -3.82  -2.56
iter:   9 15:43:16  -194.981448c -4.22  -2.64
iter:  10 15:43:24  -194.974094c -4.05  -2.76
iter:  11 15:43:31  -194.973001c -4.65  -3.03
iter:  12 15:43:38  -194.970616c -4.96  -3.13
iter:  13 15:43:46  -194.969925c -5.08  -3.30
iter:  14 15:43:53  -194.970130c -5.38  -3.55
iter:  15 15:44:01  -194.969631c -6.09  -3.58
iter:  16 15:44:08  -194.969678c -6.20  -3.74
iter:  17 15:44:16  -194.969922c -6.13  -3.88
iter:  18 15:44:23  -194.969930c -6.89  -4.09c
iter:  19 15:44:31  -194.969920c -6.72  -4.22c
iter:  20 15:44:38  -194.969957c -7.34  -4.43c
iter:  21 15:44:45  -194.969949c -7.86c -4.48c

Converged after 21 iterations.

Dipole moment: (-10.463856, -6.041310, -0.021900) |e|*Ang

Energy contributions relative to reference atoms: (reference = -13502612.219457)

Kinetic:       -261.809291
Potential:     +205.747818
External:        +0.000000
XC:            -121.365660
Entropy (-ST):   -1.818170
Local:          -16.633731
--------------------------
Free energy:   -195.879034
Extrapolated:  -194.969949

Showing only first 2 kpts
 Kpt  Band  Eigenvalues  Occupancy
  0   214      0.99230    1.48256
  0   215      1.02099    1.36519
  0   216      1.05615    1.20417
  0   217      1.10256    0.97503

  1   214      0.86643    1.81962
  1   215      0.88196    1.79247
  1   216      0.93598    1.66842
  1   217      0.97046    1.56184


Fermi level: 1.09756

No gap

Forces in eV/Ang:
  0 Pt   -0.48067   -0.27752   -0.95600
  1 Pt    0.00000    0.81019    0.06479
  2 Pt    0.48067   -0.27752   -0.95600
  3 Pt    0.70164   -0.40509    0.06479
  4 Pt   -0.70164   -0.40509    0.06479
  5 Pt    0.00000    0.78368   -0.38366
  6 Pt    0.00000    0.55503   -0.95600
  7 Pt    0.67868   -0.39184   -0.38366
  8 Pt   -0.67868   -0.39184   -0.38366
  9 Pt   -0.00000    0.20093    0.68149
 10 Pt    1.19721    0.69121   -0.29140
 11 Pt   -1.19721    0.69121   -0.29140
 12 Pt   -0.23257    0.13427    0.41581
 13 Pt    0.00000   -1.38242   -0.29140
 14 Pt    0.23257    0.13427    0.41581
 15 Pt   -0.17401   -0.10047    0.68149
 16 Pt    0.17401   -0.10047    0.68149
 17 Pt    0.00000   -0.26854    0.41581
 18 Pt    0.00000   -0.00000    0.60046
 19 Pt    0.17358   -0.84972    0.10276
 20 Pt   -0.17358   -0.84972    0.10276
 21 Pt   -0.64909    0.57518    0.10276
 22 Pt    0.00000    0.00000    0.00278
 23 Pt    0.64909    0.57518    0.10276
 24 Pt   -0.82267    0.27454    0.10276
 25 Pt    0.82267    0.27454    0.10276
 26 Pt    0.00000   -0.00000    0.26914

System changes: positions 

Initializing position-dependent things.

Density initialized from wave functions
                                            
                                            
                                            
                                            
                 Pt     Pt    Pt            
                                            
            Pt    PPt    PPt   Pt           
       Pt     Pt     Pt                     
             Pt     Pt     Pt               
        Pt     Pt    PPt   Pt     Pt        
                                            
                Pt     Pt     Pt            
           Pt     Pt     Pt                 
                                            
                                            
                                            
                                            

Positions:
   0 Pt     1.441059    0.831996    6.144886    ( 0.0000,  0.0000,  0.0000)
   1 Pt     4.210821    0.782998    6.160406    ( 0.0000,  0.0000,  0.0000)
   2 Pt     6.980582    0.831996    6.144886    ( 0.0000,  0.0000,  0.0000)
   3 Pt     2.783506    3.255179    6.160406    ( 0.0000,  0.0000,  0.0000)
   4 Pt     5.638135    3.255179    6.160406    ( 0.0000,  0.0000,  0.0000)
   5 Pt     8.421642    3.201209    6.152262    ( 0.0000,  0.0000,  0.0000)
   6 Pt     4.210821    5.629364    6.144886    ( 0.0000,  0.0000,  0.0000)
   7 Pt     6.983150    5.692751    6.152262    ( 0.0000,  0.0000,  0.0000)
   8 Pt     9.860134    5.692751    6.152262    ( 0.0000,  0.0000,  0.0000)
   9 Pt    -0.000000    1.627402    8.332065    ( 0.0000,  0.0000,  0.0000)
  10 Pt     2.808640    1.621569    8.315117    ( 0.0000,  0.0000,  0.0000)
  11 Pt     5.613002    1.621569    8.315117    ( 0.0000,  0.0000,  0.0000)
  12 Pt     1.404307    4.051460    8.322365    ( 0.0000,  0.0000,  0.0000)
  13 Pt     4.210821    4.050217    8.315117    ( 0.0000,  0.0000,  0.0000)
  14 Pt     7.017335    4.051460    8.322365    ( 0.0000,  0.0000,  0.0000)
  15 Pt     2.801449    6.479655    8.332065    ( 0.0000,  0.0000,  0.0000)
  16 Pt     5.620192    6.479655    8.332065    ( 0.0000,  0.0000,  0.0000)
  17 Pt     8.421642    6.483791    8.322365    ( 0.0000,  0.0000,  0.0000)
  18 Pt    -0.000000   -0.000000   10.509412    ( 0.0000,  0.0000,  0.0000)
  19 Pt     2.810929    0.009688   10.519149    ( 0.0000,  0.0000,  0.0000)
  20 Pt     5.610713    0.009688   10.519149    ( 0.0000,  0.0000,  0.0000)
  21 Pt     1.413855    2.429492   10.519149    ( 0.0000,  0.0000,  0.0000)
  22 Pt     4.210821    2.431119   10.504134    ( 0.0000,  0.0000,  0.0000)
  23 Pt     7.007787    2.429492   10.519149    ( 0.0000,  0.0000,  0.0000)
  24 Pt     2.813747    4.854176   10.519149    ( 0.0000,  0.0000,  0.0000)
  25 Pt     5.607895    4.854176   10.519149    ( 0.0000,  0.0000,  0.0000)
  26 Pt     8.421642    4.862237   10.492752    ( 0.0000,  0.0000,  0.0000)

Unit cell:
           periodic     x           y           z      points  spacing
  1. axis:    yes    8.421642    0.000000    0.000000    42     0.1737
  2. axis:    yes    4.210821    7.293356    0.000000    42     0.1737
  3. axis:    no     0.000000    0.000000   16.584161    84     0.1974

  Lengths:   8.421642   8.421642  16.584161
  Angles:   90.000000  90.000000  60.000000

Effective grid spacing dv^(1/3) = 0.1901

     iter     time        total  log10-change:
                         energy  eigst   dens
iter:   1 15:44:55  -203.519814  -0.89
iter:   2 15:45:03  -196.834778  -1.79  -1.66
iter:   3 15:45:10  -196.990763  -2.34  -1.99
iter:   4 15:45:17  -196.113796  -2.87  -1.98
iter:   5 15:45:25  -195.938095  -3.17  -2.19
iter:   6 15:45:32  -195.830329  -2.92  -2.32
iter:   7 15:45:40  -195.794634c -3.32  -2.56
iter:   8 15:45:47  -195.790853c -4.35  -2.72
iter:   9 15:45:55  -195.784300c -4.33  -2.76
iter:  10 15:46:02  -195.786702c -4.55  -2.93
iter:  11 15:46:09  -195.779939c -4.80  -3.04
iter:  12 15:46:17  -195.779584c -5.55  -3.30
iter:  13 15:46:24  -195.779362c -5.11  -3.36
iter:  14 15:46:32  -195.779461c -5.64  -3.54
iter:  15 15:46:39  -195.779416c -6.31  -3.71
iter:  16 15:46:47  -195.779415c -6.04  -3.79
iter:  17 15:46:54  -195.779444c -6.36  -3.95
iter:  18 15:47:02  -195.779512c -6.98  -4.10c
iter:  19 15:47:09  -195.779472c -7.33  -4.22c
iter:  20 15:47:16  -195.779378c -7.06  -4.32c
iter:  21 15:47:24  -195.779372c -7.40c -4.60c

Converged after 21 iterations.

Dipole moment: (-1.510141, -0.871880, -0.001341) |e|*Ang

Energy contributions relative to reference atoms: (reference = -13502612.219457)

Kinetic:       -305.058248
Potential:     +242.901938
External:        +0.000000
XC:            -116.251927
Entropy (-ST):   -1.833620
Local:          -16.454325
--------------------------
Free energy:   -196.696182
Extrapolated:  -195.779372

Showing only first 2 kpts
 Kpt  Band  Eigenvalues  Occupancy
  0   214      0.95338    1.50544
  0   215      0.96048    1.47854
  0   216      1.01428    1.24686
  0   217      1.10017    0.82444

  1   214      0.82582    1.83193
  1   215      0.83251    1.82134
  1   216      0.86328    1.76454
  1   217      0.87052    1.74908


Fermi level: 1.06469

No gap

Forces in eV/Ang:
  0 Pt   -0.33429   -0.19300   -0.05798
  1 Pt   -0.00000    0.15651   -0.25851
  2 Pt    0.33429   -0.19300   -0.05798
  3 Pt    0.13554   -0.07825   -0.25851
  4 Pt   -0.13554   -0.07825   -0.25851
  5 Pt    0.00000    0.26496   -0.12573
  6 Pt    0.00000    0.38600   -0.05798
  7 Pt    0.22947   -0.13248   -0.12573
  8 Pt   -0.22947   -0.13248   -0.12573
  9 Pt   -0.00000   -0.18337    0.05551
 10 Pt    0.00466    0.00269    0.26729
 11 Pt   -0.00466    0.00269    0.26729
 12 Pt   -0.07652    0.04418    0.14191
 13 Pt    0.00000   -0.00538    0.26729
 14 Pt    0.07652    0.04418    0.14191
 15 Pt    0.15880    0.09168    0.05551
 16 Pt   -0.15880    0.09168    0.05551
 17 Pt    0.00000   -0.08835    0.14191
 18 Pt    0.00000   -0.00000   -0.02817
 19 Pt   -0.01727   -0.04285   -0.03072
 20 Pt    0.01727   -0.04285   -0.03072
 21 Pt   -0.04574    0.00647   -0.03072
 22 Pt    0.00000    0.00000    0.04606
 23 Pt    0.04574    0.00647   -0.03072
 24 Pt   -0.02847    0.03638   -0.03072
 25 Pt    0.02847    0.03638   -0.03072
 26 Pt    0.00000   -0.00000    0.08888

System changes: positions 

Initializing position-dependent things.

Density initialized from wave functions
                                            
                                            
                                            
                                            
                 Pt     Pt     Pt           
                                            
            Pt    PPt    PPt   Pt           
       Pt     Pt    PPt                     
             Pt            Pt               
        Pt     Pt    PPt    Pt    Pt        
                                            
                Pt     Pt     Pt            
           Pt     Pt     Pt                 
                                            
                                            
                                            
                                            

Positions:
   0 Pt     1.398147    0.807220    6.164189    ( 0.0000,  0.0000,  0.0000)
   1 Pt     4.210821    0.797321    6.100924    ( 0.0000,  0.0000,  0.0000)
   2 Pt     7.023495    0.807220    6.164189    ( 0.0000,  0.0000,  0.0000)
   3 Pt     2.795911    3.248017    6.100924    ( 0.0000,  0.0000,  0.0000)
   4 Pt     5.625731    3.248017    6.100924    ( 0.0000,  0.0000,  0.0000)
   5 Pt     8.421642    3.242402    6.126212    ( 0.0000,  0.0000,  0.0000)
   6 Pt     4.210821    5.678915    6.164189    ( 0.0000,  0.0000,  0.0000)
   7 Pt     7.018824    5.672155    6.126212    ( 0.0000,  0.0000,  0.0000)
   8 Pt     9.824460    5.672155    6.126212    ( 0.0000,  0.0000,  0.0000)
   9 Pt    -0.000000    1.599487    8.282437    ( 0.0000,  0.0000,  0.0000)
  10 Pt     2.746931    1.585941    8.351455    ( 0.0000,  0.0000,  0.0000)
  11 Pt     5.674711    1.585941    8.351455    ( 0.0000,  0.0000,  0.0000)
  12 Pt     1.408324    4.049141    8.309331    ( 0.0000,  0.0000,  0.0000)
  13 Pt     4.210821    4.121473    8.351455    ( 0.0000,  0.0000,  0.0000)
  14 Pt     7.013318    4.049141    8.309331    ( 0.0000,  0.0000,  0.0000)
  15 Pt     2.825624    6.493612    8.282437    ( 0.0000,  0.0000,  0.0000)
  16 Pt     5.596017    6.493612    8.282437    ( 0.0000,  0.0000,  0.0000)
  17 Pt     8.421642    6.488429    8.309331    ( 0.0000,  0.0000,  0.0000)
  18 Pt    -0.000000   -0.000000   10.511554    ( 0.0000,  0.0000,  0.0000)
  19 Pt     2.793146    0.032082   10.508921    ( 0.0000,  0.0000,  0.0000)
  20 Pt     5.628496    0.032082   10.508921    ( 0.0000,  0.0000,  0.0000)
  21 Pt     1.424357    2.402894   10.508921    ( 0.0000,  0.0000,  0.0000)
  22 Pt     4.210821    2.431119   10.544926    ( 0.0000,  0.0000,  0.0000)
  23 Pt     6.997284    2.402894   10.508921    ( 0.0000,  0.0000,  0.0000)
  24 Pt     2.842032    4.858379   10.508921    ( 0.0000,  0.0000,  0.0000)
  25 Pt     5.579610    4.858379   10.508921    ( 0.0000,  0.0000,  0.0000)
  26 Pt     8.421642    4.862237   10.551643    ( 0.0000,  0.0000,  0.0000)

Unit cell:
           periodic     x           y           z      points  spacing
  1. axis:    yes    8.421642    0.000000    0.000000    42     0.1737
  2. axis:    yes    4.210821    7.293356    0.000000    42     0.1737
  3. axis:    no     0.000000    0.000000   16.584161    84     0.1974

  Lengths:   8.421642   8.421642  16.584161
  Angles:   90.000000  90.000000  60.000000

Effective grid spacing dv^(1/3) = 0.1901

     iter     time        total  log10-change:
                         energy  eigst   dens
iter:   1 15:47:34  -203.577739  -1.05
iter:   2 15:47:41  -198.584004  -1.65  -1.64
iter:   3 15:47:48  -197.249548  -2.15  -1.84
iter:   4 15:47:56  -195.742582  -2.84  -1.93
iter:   5 15:48:03  -195.658605  -3.56  -2.33
iter:   6 15:48:11  -195.564981c -3.15  -2.41
iter:   7 15:48:18  -195.535444c -3.30  -2.61
iter:   8 15:48:26  -195.530597c -4.24  -2.80
iter:   9 15:48:33  -195.526298c -4.67  -2.86
iter:  10 15:48:40  -195.524325c -4.77  -2.96
iter:  11 15:48:48  -195.520905c -4.83  -3.10
iter:  12 15:48:55  -195.520561c -5.53  -3.38
iter:  13 15:49:03  -195.520482c -5.29  -3.46
iter:  14 15:49:10  -195.520687c -5.88  -3.60
iter:  15 15:49:18  -195.520741c -6.37  -3.70
iter:  16 15:49:25  -195.520871c -5.90  -3.81
iter:  17 15:49:32  -195.520870c -6.54  -4.02c
iter:  18 15:49:40  -195.520910c -7.29  -4.14c
iter:  19 15:49:47  -195.521025c -6.83  -4.18c
iter:  20 15:49:55  -195.521049c -7.53c -4.32c

Converged after 20 iterations.

Dipole moment: (-5.112174, -2.951515, 0.004724) |e|*Ang

Energy contributions relative to reference atoms: (reference = -13502612.219457)

Kinetic:       -314.016817
Potential:     +250.564178
External:        +0.000000
XC:            -114.714070
Entropy (-ST):   -1.836815
Local:          -16.435933
--------------------------
Free energy:   -196.439456
Extrapolated:  -195.521049

Showing only first 2 kpts
 Kpt  Band  Eigenvalues  Occupancy
  0   214      0.94689    1.49361
  0   215      0.96095    1.43861
  0   216      1.00685    1.23645
  0   217      1.08821    0.83573

  1   214      0.81441    1.83463
  1   215      0.83230    1.80540
  1   216      0.84264    1.78646
  1   217      0.87337    1.72037


Fermi level: 1.05505

No gap

Forces in eV/Ang:
  0 Pt    0.22817    0.13174   -0.64763
  1 Pt   -0.00000    0.31668    0.44020
  2 Pt   -0.22817    0.13174   -0.64763
  3 Pt    0.27425   -0.15834    0.44020
  4 Pt   -0.27425   -0.15834    0.44020
  5 Pt    0.00000    0.10232   -0.05545
  6 Pt    0.00000   -0.26347   -0.64763
  7 Pt    0.08861   -0.05116   -0.05545
  8 Pt   -0.08861   -0.05116   -0.05545
  9 Pt    0.00000    0.45262    0.65128
 10 Pt    0.87809    0.50697   -0.49404
 11 Pt   -0.87809    0.50697   -0.49404
 12 Pt   -0.07972    0.04603    0.27766
 13 Pt    0.00000   -1.01393   -0.49404
 14 Pt    0.07972    0.04603    0.27766
 15 Pt   -0.39198   -0.22631    0.65128
 16 Pt    0.39198   -0.22631    0.65128
 17 Pt   -0.00000   -0.09206    0.27766
 18 Pt    0.00000   -0.00000   -0.03654
 19 Pt    0.13257   -0.48201    0.07478
 20 Pt   -0.13257   -0.48201    0.07478
 21 Pt   -0.35114    0.35581    0.07478
 22 Pt    0.00000    0.00000   -0.42681
 23 Pt    0.35114    0.35581    0.07478
 24 Pt   -0.48371    0.12619    0.07478
 25 Pt    0.48371    0.12619    0.07478
 26 Pt   -0.00000   -0.00000   -0.50948

System changes: positions 

Initializing position-dependent things.

Density initialized from wave functions
                                            
                                            
                                            
                                            
                 Pt     Pt     Pt           
                                            
            Pt    PPt    PPt   Pt           
       Pt     Pt     Pt                     
             Pt     Pt     Pt               
        Pt     Pt    PPt    Pt    Pt        
                                            
                Pt     Pt     Pt            
           Pt     Pt     Pt                 
                                            
                                            
                                            
                                            

Positions:
   0 Pt     1.408458    0.813174    6.126964    ( 0.0000,  0.0000,  0.0000)
   1 Pt     4.210821    0.803151    6.124398    ( 0.0000,  0.0000,  0.0000)
   2 Pt     7.013184    0.813174    6.126964    ( 0.0000,  0.0000,  0.0000)
   3 Pt     2.800960    3.245102    6.124398    ( 0.0000,  0.0000,  0.0000)
   4 Pt     5.620682    3.245102    6.124398    ( 0.0000,  0.0000,  0.0000)
   5 Pt     8.421642    3.233231    6.125699    ( 0.0000,  0.0000,  0.0000)
   6 Pt     4.210821    5.667009    6.126964    ( 0.0000,  0.0000,  0.0000)
   7 Pt     7.010881    5.676740    6.125699    ( 0.0000,  0.0000,  0.0000)
   8 Pt     9.832402    5.676740    6.125699    ( 0.0000,  0.0000,  0.0000)
   9 Pt    -0.000000    1.619378    8.310355    ( 0.0000,  0.0000,  0.0000)
  10 Pt     2.805171    1.619566    8.309537    ( 0.0000,  0.0000,  0.0000)
  11 Pt     5.616471    1.619566    8.309537    ( 0.0000,  0.0000,  0.0000)
  12 Pt     1.402651    4.052416    8.308060    ( 0.0000,  0.0000,  0.0000)
  13 Pt     4.210821    4.054223    8.309537    ( 0.0000,  0.0000,  0.0000)
  14 Pt     7.018990    4.052416    8.308060    ( 0.0000,  0.0000,  0.0000)
  15 Pt     2.808399    6.483667    8.310355    ( 0.0000,  0.0000,  0.0000)
  16 Pt     5.613243    6.483667    8.310355    ( 0.0000,  0.0000,  0.0000)
  17 Pt     8.421642    6.481879    8.308060    ( 0.0000,  0.0000,  0.0000)
  18 Pt    -0.000000   -0.000000   10.515479    ( 0.0000,  0.0000,  0.0000)
  19 Pt     2.806663    0.005811   10.501529    ( 0.0000,  0.0000,  0.0000)
  20 Pt     5.614979    0.005811   10.501529    ( 0.0000,  0.0000,  0.0000)
  21 Pt     1.408364    2.427736   10.501529    ( 0.0000,  0.0000,  0.0000)
  22 Pt     4.210821    2.431119   10.516941    ( 0.0000,  0.0000,  0.0000)
  23 Pt     7.013278    2.427736   10.501529    ( 0.0000,  0.0000,  0.0000)
  24 Pt     2.812522    4.859809   10.501529    ( 0.0000,  0.0000,  0.0000)
  25 Pt     5.609120    4.859809   10.501529    ( 0.0000,  0.0000,  0.0000)
  26 Pt     8.421642    4.862237   10.513305    ( 0.0000,  0.0000,  0.0000)

Unit cell:
           periodic     x           y           z      points  spacing
  1. axis:    yes    8.421642    0.000000    0.000000    42     0.1737
  2. axis:    yes    4.210821    7.293356    0.000000    42     0.1737
  3. axis:    no     0.000000    0.000000   16.584161    84     0.1974

  Lengths:   8.421642   8.421642  16.584161
  Angles:   90.000000  90.000000  60.000000

Effective grid spacing dv^(1/3) = 0.1901

     iter     time        total  log10-change:
                         energy  eigst   dens
iter:   1 15:50:04  -200.447022  -1.30
iter:   2 15:50:12  -196.922844  -2.02  -1.77
iter:   3 15:50:19  -197.023553  -2.41  -2.03
iter:   4 15:50:27  -195.964851  -3.08  -2.02
iter:   5 15:50:34  -195.900081  -3.57  -2.45
iter:   6 15:50:42  -195.856124c -3.36  -2.57
iter:   7 15:50:49  -195.845199c -3.66  -2.79
iter:   8 15:50:56  -195.842098c -4.74  -2.97
iter:   9 15:51:04  -195.841145c -5.03  -3.01
iter:  10 15:51:11  -195.842370c -5.01  -3.07
iter:  11 15:51:19  -195.839110c -4.90  -3.10
iter:  12 15:51:26  -195.837891c -5.32  -3.40
iter:  13 15:51:34  -195.837766c -5.97  -3.68
iter:  14 15:51:41  -195.837672c -5.84  -3.77
iter:  15 15:51:48  -195.837643c -6.52  -4.02c
iter:  16 15:51:56  -195.837688c -6.75  -4.10c
iter:  17 15:52:03  -195.837682c -6.73  -4.11c
iter:  18 15:52:11  -195.837718c -7.29  -4.29c
iter:  19 15:52:18  -195.837736c -7.61c -4.47c

Converged after 19 iterations.

Dipole moment: (-1.204996, -0.695705, 0.000562) |e|*Ang

Energy contributions relative to reference atoms: (reference = -13502612.219457)

Kinetic:       -318.298501
Potential:     +254.241246
External:        +0.000000
XC:            -114.457122
Entropy (-ST):   -1.839656
Local:          -16.403531
--------------------------
Free energy:   -196.757564
Extrapolated:  -195.837736

Showing only first 2 kpts
 Kpt  Band  Eigenvalues  Occupancy
  0   214      0.94734    1.49087
  0   215      0.94820    1.48759
  0   216      1.00407    1.24822
  0   217      1.09870    0.78385

  1   214      0.83188    1.80564
  1   215      0.83541    1.79936
  1   216      0.83925    1.79231
  1   217      0.84205    1.78704


Fermi level: 1.05478

No gap

Forces in eV/Ang:
  0 Pt   -0.04416   -0.02550   -0.05299
  1 Pt    0.00000    0.06208   -0.00773
  2 Pt    0.04416   -0.02550   -0.05299
  3 Pt    0.05376   -0.03104   -0.00773
  4 Pt   -0.05376   -0.03104   -0.00773
  5 Pt    0.00000    0.06145   -0.03718
  6 Pt    0.00000    0.05099   -0.05299
  7 Pt    0.05322   -0.03073   -0.03718
  8 Pt   -0.05322   -0.03073   -0.03718
  9 Pt    0.00000   -0.01854    0.10306
 10 Pt    0.08218    0.04745    0.05380
 11 Pt   -0.08218    0.04745    0.05380
 12 Pt   -0.02664    0.01538    0.11017
 13 Pt    0.00000   -0.09489    0.05380
 14 Pt    0.02664    0.01538    0.11017
 15 Pt    0.01605    0.00927    0.10306
 16 Pt   -0.01605    0.00927    0.10306
 17 Pt    0.00000   -0.03076    0.11017
 18 Pt    0.00000   -0.00000   -0.12754
 19 Pt    0.01185   -0.05173   -0.01203
 20 Pt   -0.01185   -0.05173   -0.01203
 21 Pt   -0.03887    0.03612   -0.01203
 22 Pt    0.00000    0.00000   -0.13495
 23 Pt    0.03887    0.03612   -0.01203
 24 Pt   -0.05072    0.01560   -0.01203
 25 Pt    0.05072    0.01560   -0.01203
 26 Pt   -0.00000    0.00000   -0.14897

System changes: positions 

Initializing position-dependent things.

Density initialized from wave functions
                                            
                                            
                                            
                                            
                 Pt     Pt                  
                               Pt           
            Pt    PPt    PPt   Pt           
       Pt     Pt    PPt                     
             Pt            Pt               
        Pt     Pt    PPt   Pt     Pt        
                                            
                Pt     Pt     Pt            
           Pt     Pt     Pt                 
                                            
                                            
                                            
                                            

Positions:
   0 Pt     1.473090    0.850489    6.092699    ( 0.0000,  0.0000,  0.0000)
   1 Pt     4.210821    0.794370    6.107705    ( 0.0000,  0.0000,  0.0000)
   2 Pt     6.948552    0.850489    6.092699    ( 0.0000,  0.0000,  0.0000)
   3 Pt     2.793355    3.249493    6.107705    ( 0.0000,  0.0000,  0.0000)
   4 Pt     5.628287    3.249493    6.107705    ( 0.0000,  0.0000,  0.0000)
   5 Pt     8.421642    3.214898    6.098726    ( 0.0000,  0.0000,  0.0000)
   6 Pt     4.210821    5.592378    6.092699    ( 0.0000,  0.0000,  0.0000)
   7 Pt     6.995004    5.685907    6.098726    ( 0.0000,  0.0000,  0.0000)
   8 Pt     9.848280    5.685907    6.098726    ( 0.0000,  0.0000,  0.0000)
   9 Pt    -0.000000    1.609626    8.239352    ( 0.0000,  0.0000,  0.0000)
  10 Pt     2.759948    1.593457    8.328871    ( 0.0000,  0.0000,  0.0000)
  11 Pt     5.661694    1.593457    8.328871    ( 0.0000,  0.0000,  0.0000)
  12 Pt     1.402982    4.052225    8.285859    ( 0.0000,  0.0000,  0.0000)
  13 Pt     4.210821    4.106442    8.328871    ( 0.0000,  0.0000,  0.0000)
  14 Pt     7.018660    4.052225    8.285859    ( 0.0000,  0.0000,  0.0000)
[...]
  3. axis:    no     0.000000    0.000000   16.584161    84     0.1974

  Lengths:   8.421642   8.421642  16.584161
  Angles:   90.000000  90.000000  60.000000

Effective grid spacing dv^(1/3) = 0.1901

     iter     time        total  log10-change:
                         energy  eigst   dens
iter:   1 15:56:53  -210.166487  -0.62
iter:   2 15:57:00  -205.308171  -1.23  -1.51
iter:   3 15:57:08  -195.441693  -1.90  -1.59
iter:   4 15:57:15  -194.634559  -2.59  -1.95
iter:   5 15:57:23  -194.498689  -3.09  -2.12
iter:   6 15:57:30  -194.326498  -2.95  -2.18
iter:   7 15:57:38  -194.237957  -3.06  -2.36
iter:   8 15:57:45  -194.207410c -3.58  -2.53
iter:   9 15:57:52  -194.197778c -4.16  -2.66
iter:  10 15:58:00  -194.188804c -4.33  -2.75
iter:  11 15:58:07  -194.185356c -4.52  -2.97
iter:  12 15:58:15  -194.184789c -4.98  -3.20
iter:  13 15:58:22  -194.184122c -5.32  -3.30
iter:  14 15:58:30  -194.184057c -5.40  -3.43
iter:  15 15:58:37  -194.184067c -5.81  -3.57
iter:  16 15:58:45  -194.184026c -6.33  -3.65
iter:  17 15:58:52  -194.183909c -6.11  -3.73
iter:  18 15:58:59  -194.183910c -6.64  -3.86
iter:  19 15:59:07  -194.183969c -6.62  -3.92
iter:  20 15:59:14  -194.184062c -6.88  -4.03c
iter:  21 15:59:22  -194.184112c -7.20  -4.15c
iter:  22 15:59:29  -194.184127c -7.17  -4.24c
iter:  23 15:59:37  -194.184110c -7.50c -4.38c

Converged after 23 iterations.

Dipole moment: (5.734354, 3.310731, -0.002068) |e|*Ang

Energy contributions relative to reference atoms: (reference = -13502612.219457)

Kinetic:       -279.758574
Potential:     +221.202045
External:        +0.000000
XC:            -118.082007
Entropy (-ST):   -1.771001
Local:          -16.660073
--------------------------
Free energy:   -195.069610
Extrapolated:  -194.184110

Showing only first 2 kpts
 Kpt  Band  Eigenvalues  Occupancy
  0   214      0.94131    1.54485
  0   215      0.96408    1.45989
  0   216      1.01532    1.23641
  0   217      1.06597    0.98772

  1   214      0.83561    1.81425
  1   215      0.85344    1.78196
  1   216      0.86306    1.76255
  1   217      0.90772    1.65212


Fermi level: 1.06352

No gap

Forces in eV/Ang:
  0 Pt   -0.61269   -0.35374   -1.76777
  1 Pt    0.00000   -0.07529    0.32192
  2 Pt    0.61269   -0.35374   -1.76777
  3 Pt   -0.06521    0.03765    0.32192
  4 Pt    0.06521    0.03765    0.32192
  5 Pt    0.00000    0.25300    1.04120
  6 Pt    0.00000    0.70748   -1.76777
  7 Pt    0.21911   -0.12650    1.04120
  8 Pt   -0.21911   -0.12650    1.04120
  9 Pt   -0.00000    1.77414   -0.64587
 10 Pt    1.12253    0.64809    1.65918
 11 Pt   -1.12253    0.64809    1.65918
 12 Pt    0.12965   -0.07485   -1.96619
 13 Pt    0.00000   -1.29618    1.65918
 14 Pt   -0.12965   -0.07485   -1.96619
 15 Pt   -1.53645   -0.88707   -0.64587
 16 Pt    1.53645   -0.88707   -0.64587
 17 Pt   -0.00000    0.14971   -1.96619
 18 Pt    0.00000   -0.00000    2.62120
 19 Pt   -0.34867    0.59388    0.08354
 20 Pt    0.34867    0.59388    0.08354
 21 Pt    0.33998   -0.59890    0.08354
 22 Pt   -0.00000    0.00000   -0.98382
 23 Pt   -0.33998   -0.59890    0.08354
 24 Pt    0.68865    0.00502    0.08354
 25 Pt   -0.68865    0.00502    0.08354
 26 Pt    0.00000    0.00000    1.96882

System changes: positions 

Initializing position-dependent things.

Density initialized from wave functions
                                            
                                            
                                            
                                            
                                            
                 Pt     Pt     Pt           
            Pt     Pt     Pt                
                  Pt     Pt     Pt          
       Pt    PPt    PPt    Pt               
        Pt     Pt     Pt                    
                     Pt     Pt    Pt        
                Pt     Pt     Pt            
                                            
           Pt     Pt     Pt                 
                                            
                                            
                                            
                                            

Positions:
   0 Pt     1.424204    0.822265    6.173103    ( 0.0000,  0.0000,  0.0000)
   1 Pt     4.210821    0.814117    6.089748    ( 0.0000,  0.0000,  0.0000)
   2 Pt     6.997437    0.822265    6.173103    ( 0.0000,  0.0000,  0.0000)
   3 Pt     2.810456    3.239619    6.089748    ( 0.0000,  0.0000,  0.0000)
   4 Pt     5.611185    3.239619    6.089748    ( 0.0000,  0.0000,  0.0000)
   5 Pt     8.421642    3.290198    6.124715    ( 0.0000,  0.0000,  0.0000)
   6 Pt     4.210821    5.648826    6.173103    ( 0.0000,  0.0000,  0.0000)
   7 Pt     7.060216    5.648257    6.124715    ( 0.0000,  0.0000,  0.0000)
   8 Pt     9.783068    5.648257    6.124715    ( 0.0000,  0.0000,  0.0000)
   9 Pt    -0.000000    1.601520    8.480288    ( 0.0000,  0.0000,  0.0000)
  10 Pt     2.756976    1.591741    8.519263    ( 0.0000,  0.0000,  0.0000)
  11 Pt     5.664666    1.591741    8.519263    ( 0.0000,  0.0000,  0.0000)
  12 Pt     1.389500    4.060009    8.504338    ( 0.0000,  0.0000,  0.0000)
  13 Pt     4.210821    4.109874    8.519263    ( 0.0000,  0.0000,  0.0000)
  14 Pt     7.032142    4.060009    8.504338    ( 0.0000,  0.0000,  0.0000)
  15 Pt     2.823864    6.492596    8.480288    ( 0.0000,  0.0000,  0.0000)
  16 Pt     5.597778    6.492596    8.480288    ( 0.0000,  0.0000,  0.0000)
  17 Pt     8.421642    6.466694    8.504338    ( 0.0000,  0.0000,  0.0000)
  18 Pt    -0.000000   -0.000000   10.607186    ( 0.0000,  0.0000,  0.0000)
  19 Pt     2.804712   -0.036244   10.586127    ( 0.0000,  0.0000,  0.0000)
  20 Pt     5.616930   -0.036244   10.586127    ( 0.0000,  0.0000,  0.0000)
  21 Pt     1.370968    2.447074   10.586127    ( 0.0000,  0.0000,  0.0000)
  22 Pt     4.210821    2.431119   10.613059    ( 0.0000,  0.0000,  0.0000)
  23 Pt     7.050674    2.447074   10.586127    ( 0.0000,  0.0000,  0.0000)
  24 Pt     2.777077    4.882525   10.586127    ( 0.0000,  0.0000,  0.0000)
  25 Pt     5.644565    4.882525   10.586127    ( 0.0000,  0.0000,  0.0000)
  26 Pt     8.421642    4.862237   10.690180    ( 0.0000,  0.0000,  0.0000)

Unit cell:
           periodic     x           y           z      points  spacing
  1. axis:    yes    8.421642    0.000000    0.000000    42     0.1737
  2. axis:    yes    4.210821    7.293356    0.000000    42     0.1737
  3. axis:    no     0.000000    0.000000   16.584161    84     0.1974

  Lengths:   8.421642   8.421642  16.584161
  Angles:   90.000000  90.000000  60.000000

Effective grid spacing dv^(1/3) = 0.1901

     iter     time        total  log10-change:
                         energy  eigst   dens
iter:   1 15:59:47  -464.321580  +0.26
iter:   2 15:59:54  -253.671332  +0.14  -0.85
iter:   3 16:00:01  -201.550444  -1.18  -1.29
iter:   4 16:00:09  -196.997821  -2.25  -1.67
iter:   5 16:00:16  -195.801850  -2.43  -1.82
iter:   6 16:00:24  -195.501332  -2.35  -1.88
iter:   7 16:00:31  -195.069945  -2.33  -2.01
iter:   8 16:00:39  -194.731625  -3.39  -2.09
iter:   9 16:00:46  -194.644967  -3.67  -2.24
iter:  10 16:00:53  -194.584269c -3.41  -2.35
iter:  11 16:01:01  -194.566181c -3.71  -2.61
iter:  12 16:01:08  -194.560527c -4.13  -2.84
iter:  13 16:01:16  -194.556451c -4.49  -2.89
iter:  14 16:01:23  -194.557885c -4.40  -3.08
iter:  15 16:01:31  -194.557513c -5.06  -3.28
iter:  16 16:01:38  -194.556654c -5.31  -3.28
iter:  17 16:01:45  -194.556385c -5.73  -3.46
iter:  18 16:01:53  -194.556625c -5.58  -3.54
iter:  19 16:02:00  -194.557122c -6.07  -3.71
iter:  20 16:02:08  -194.557364c -6.17  -3.78
iter:  21 16:02:15  -194.557350c -6.67  -3.92
iter:  22 16:02:23  -194.557316c -6.44  -3.97
iter:  23 16:02:30  -194.557273c -7.12  -4.08c
iter:  24 16:02:37  -194.557274c -7.37  -4.16c
iter:  25 16:02:45  -194.557288c -7.49c -4.22c

Converged after 25 iterations.

Dipole moment: (5.632746, 3.252067, -0.003737) |e|*Ang

Energy contributions relative to reference atoms: (reference = -13502612.219457)

Kinetic:       -338.254164
Potential:     +271.324162
External:        +0.000000
XC:            -110.315528
Entropy (-ST):   -1.811357
Local:          -16.406079
--------------------------
Free energy:   -195.462966
Extrapolated:  -194.557288

Showing only first 2 kpts
 Kpt  Band  Eigenvalues  Occupancy
  0   214      0.92190    1.45526
  0   215      0.94141    1.37462
  0   216      0.96294    1.27856
  0   217      1.03220    0.93992

  1   214      0.79363    1.81194
  1   215      0.80319    1.79499
  1   216      0.81145    1.77930
  1   217      0.82082    1.76022


Fermi level: 1.02017

No gap

Forces in eV/Ang:
  0 Pt   -0.04687   -0.02706    0.68107
  1 Pt    0.00000    0.10909    1.13276
  2 Pt    0.04687   -0.02706    0.68107
  3 Pt    0.09448   -0.05455    1.13276
  4 Pt   -0.09448   -0.05455    1.13276
  5 Pt    0.00000   -0.31720    0.93237
  6 Pt    0.00000    0.05412    0.68107
  7 Pt   -0.27470    0.15860    0.93237
  8 Pt    0.27470    0.15860    0.93237
  9 Pt    0.00000    0.20055   -1.59964
 10 Pt    0.65261    0.37678   -1.58198
 11 Pt   -0.65261    0.37678   -1.58198
 12 Pt    0.02729   -0.01575   -1.63075
 13 Pt    0.00000   -0.75357   -1.58198
 14 Pt   -0.02729   -0.01575   -1.63075
 15 Pt   -0.17368   -0.10027   -1.59964
 16 Pt    0.17368   -0.10027   -1.59964
 17 Pt   -0.00000    0.03151   -1.63075
 18 Pt    0.00000    0.00000    0.75176
 19 Pt    0.05515    0.15777    0.88875
 20 Pt   -0.05515    0.15777    0.88875
 21 Pt    0.16421   -0.03112    0.88875
 22 Pt   -0.00000    0.00000    0.01209
 23 Pt   -0.16421   -0.03112    0.88875
 24 Pt    0.10905   -0.12665    0.88875
 25 Pt   -0.10905   -0.12665    0.88875
 26 Pt    0.00000    0.00000    0.27963

System changes: positions 

Initializing position-dependent things.

Density initialized from wave functions
                                            
                                            
                                            
                                            
                 Pt     Pt                  
                               Pt           
            Pt    PPt    PPt   Pt           
       Pt     Pt     Pt                     
             Pt     Pt     Pt               
        Pt     Pt    PPt    Pt    Pt        
                                            
                Pt     Pt     Pt            
           Pt     Pt     Pt                 
                                            
                                            
                                            
                                            

Positions:
   0 Pt     1.434424    0.828165    6.144907    ( 0.0000,  0.0000,  0.0000)
   1 Pt     4.210821    0.778987    6.090567    ( 0.0000,  0.0000,  0.0000)
   2 Pt     6.987218    0.828165    6.144907    ( 0.0000,  0.0000,  0.0000)
   3 Pt     2.780033    3.257184    6.090567    ( 0.0000,  0.0000,  0.0000)
   4 Pt     5.641609    3.257184    6.090567    ( 0.0000,  0.0000,  0.0000)
   5 Pt     8.421642    3.232916    6.085267    ( 0.0000,  0.0000,  0.0000)
   6 Pt     4.210821    5.637026    6.144907    ( 0.0000,  0.0000,  0.0000)
   7 Pt     7.010608    5.676898    6.085267    ( 0.0000,  0.0000,  0.0000)
   8 Pt     9.832675    5.676898    6.085267    ( 0.0000,  0.0000,  0.0000)
   9 Pt    -0.000000    1.622040    8.328170    ( 0.0000,  0.0000,  0.0000)
  10 Pt     2.802691    1.618135    8.310008    ( 0.0000,  0.0000,  0.0000)
  11 Pt     5.618950    1.618135    8.310008    ( 0.0000,  0.0000,  0.0000)
  12 Pt     1.420034    4.042380    8.327083    ( 0.0000,  0.0000,  0.0000)
  13 Pt     4.210821    4.057086    8.310008    ( 0.0000,  0.0000,  0.0000)
  14 Pt     7.001607    4.042380    8.327083    ( 0.0000,  0.0000,  0.0000)
  15 Pt     2.806093    6.482336    8.328170    ( 0.0000,  0.0000,  0.0000)
  16 Pt     5.615549    6.482336    8.328170    ( 0.0000,  0.0000,  0.0000)
  17 Pt     8.421642    6.501952    8.327083    ( 0.0000,  0.0000,  0.0000)
  18 Pt    -0.000000   -0.000000   10.461051    ( 0.0000,  0.0000,  0.0000)
  19 Pt     2.815398   -0.000878   10.513863    ( 0.0000,  0.0000,  0.0000)
  20 Pt     5.606244   -0.000878   10.513863    ( 0.0000,  0.0000,  0.0000)
  21 Pt     1.406939    2.438645   10.513863    ( 0.0000,  0.0000,  0.0000)
  22 Pt     4.210821    2.431119   10.464082    ( 0.0000,  0.0000,  0.0000)
  23 Pt     7.014703    2.438645   10.513863    ( 0.0000,  0.0000,  0.0000)
  24 Pt     2.802362    4.855588   10.513863    ( 0.0000,  0.0000,  0.0000)
  25 Pt     5.619280    4.855588   10.513863    ( 0.0000,  0.0000,  0.0000)
  26 Pt     8.421642    4.862237   10.443959    ( 0.0000,  0.0000,  0.0000)

Unit cell:
           periodic     x           y           z      points  spacing
  1. axis:    yes    8.421642    0.000000    0.000000    42     0.1737
  2. axis:    yes    4.210821    7.293356    0.000000    42     0.1737
  3. axis:    no     0.000000    0.000000   16.584161    84     0.1974

  Lengths:   8.421642   8.421642  16.584161
  Angles:   90.000000  90.000000  60.000000

Effective grid spacing dv^(1/3) = 0.1901

     iter     time        total  log10-change:
                         energy  eigst   dens
iter:   1 16:02:55  -342.434587  +0.01
iter:   2 16:03:02  -233.351450  -0.25  -1.01
iter:   3 16:03:10  -201.529455  -1.52  -1.45
iter:   4 16:03:17  -197.650532  -2.06  -1.69
iter:   5 16:03:24  -196.113553  -2.19  -1.89
iter:   6 16:03:32  -195.964338  -2.90  -2.09
iter:   7 16:03:39  -195.966665c -2.96  -2.20
iter:   8 16:03:47  -195.776670c -3.18  -2.21
iter:   9 16:03:54  -195.769577c -3.59  -2.51
iter:  10 16:04:02  -195.753035c -3.95  -2.60
iter:  11 16:04:09  -195.743974c -3.97  -2.78
iter:  12 16:04:17  -195.741787c -4.56  -3.04
iter:  13 16:04:24  -195.740364c -4.71  -3.15
iter:  14 16:04:31  -195.740773c -5.07  -3.34
iter:  15 16:04:39  -195.740132c -5.24  -3.38
iter:  16 16:04:46  -195.740000c -6.08  -3.51
iter:  17 16:04:54  -195.739917c -5.81  -3.59
iter:  18 16:05:01  -195.740004c -6.11  -3.80
iter:  19 16:05:09  -195.740140c -6.42  -3.90
iter:  20 16:05:16  -195.740202c -6.14  -3.98
iter:  21 16:05:24  -195.740281c -6.82  -4.09c
iter:  22 16:05:31  -195.740232c -7.12  -4.23c
iter:  23 16:05:38  -195.740232c -7.48c -4.43c

Converged after 23 iterations.

Dipole moment: (0.294791, 0.170198, -0.006461) |e|*Ang

Energy contributions relative to reference atoms: (reference = -13502612.219457)

Kinetic:       -319.257417
Potential:     +255.003710
External:        +0.000000
XC:            -114.170254
Entropy (-ST):   -1.834394
Local:          -16.399075
--------------------------
Free energy:   -196.657429
Extrapolated:  -195.740232

Showing only first 2 kpts
 Kpt  Band  Eigenvalues  Occupancy
  0   214      0.94578    1.49068
  0   215      0.95113    1.47013
  0   216      1.00515    1.23561
  0   217      1.08225    0.85566

  1   214      0.82082    1.82161
  1   215      0.83062    1.80504
  1   216      0.84810    1.77204
  1   217      0.85973    1.74747


Fermi level: 1.05317

No gap

Forces in eV/Ang:
  0 Pt   -0.20441   -0.11802   -0.10981
  1 Pt    0.00000    0.16201    0.21061
  2 Pt    0.20441   -0.11802   -0.10981
  3 Pt    0.14031   -0.08101    0.21061
  4 Pt   -0.14031   -0.08101    0.21061
  5 Pt    0.00000    0.12251    0.35956
  6 Pt    0.00000    0.23603   -0.10981
  7 Pt    0.10610   -0.06125    0.35956
  8 Pt   -0.10610   -0.06125    0.35956
  9 Pt   -0.00000    0.16036   -0.26746
 10 Pt    0.11796    0.06810   -0.07601
 11 Pt   -0.11796    0.06810   -0.07601
 12 Pt   -0.10879    0.06281   -0.46091
 13 Pt    0.00000   -0.13621   -0.07601
 14 Pt    0.10879    0.06281   -0.46091
 15 Pt   -0.13888   -0.08018   -0.26746
 16 Pt    0.13888   -0.08018   -0.26746
 17 Pt    0.00000   -0.12562   -0.46091
 18 Pt    0.00000   -0.00000    0.45760
 19 Pt   -0.09569    0.03345   -0.01203
 20 Pt    0.09569    0.03345   -0.01203
 21 Pt   -0.01888   -0.09960   -0.01203
 22 Pt    0.00000    0.00000    0.20191
 23 Pt    0.01888   -0.09960   -0.01203
 24 Pt    0.07682    0.06615   -0.01203
 25 Pt   -0.07682    0.06615   -0.01203
 26 Pt    0.00000    0.00000    0.43898

System changes: positions 

Initializing position-dependent things.

Density initialized from wave functions
                                            
                                            
                                            
                                            
                 Pt     Pt     Pt           
                                            
            Pt    PPt    PPt   Pt           
       Pt     Pt     Pt                     
             Pt     Pt     Pt               
        Pt     Pt    PPt    Pt    Pt        
                                            
                Pt     Pt     Pt            
           Pt     Pt     Pt                 
                                            
                                            
                                            
                                            

Positions:
   0 Pt     1.403739    0.810449    6.103855    ( 0.0000,  0.0000,  0.0000)
   1 Pt     4.210821    0.810364    6.103868    ( 0.0000,  0.0000,  0.0000)
   2 Pt     7.017903    0.810449    6.103855    ( 0.0000,  0.0000,  0.0000)
   3 Pt     2.807206    3.241496    6.103868    ( 0.0000,  0.0000,  0.0000)
   4 Pt     5.614436    3.241496    6.103868    ( 0.0000,  0.0000,  0.0000)
   5 Pt     8.421642    3.241425    6.103807    ( 0.0000,  0.0000,  0.0000)
   6 Pt     4.210821    5.672458    6.103855    ( 0.0000,  0.0000,  0.0000)
   7 Pt     7.017977    5.672643    6.103807    ( 0.0000,  0.0000,  0.0000)
   8 Pt     9.825306    5.672643    6.103807    ( 0.0000,  0.0000,  0.0000)
   9 Pt    -0.000000    1.620705    8.291985    ( 0.0000,  0.0000,  0.0000)
  10 Pt     2.807071    1.620663    8.292079    ( 0.0000,  0.0000,  0.0000)
  11 Pt     5.614570    1.620663    8.292079    ( 0.0000,  0.0000,  0.0000)
  12 Pt     1.403617    4.051858    8.292102    ( 0.0000,  0.0000,  0.0000)
  13 Pt     4.210821    4.052029    8.292079    ( 0.0000,  0.0000,  0.0000)
  14 Pt     7.018025    4.051858    8.292102    ( 0.0000,  0.0000,  0.0000)
  15 Pt     2.807249    6.483003    8.291985    ( 0.0000,  0.0000,  0.0000)
  16 Pt     5.614393    6.483003    8.291985    ( 0.0000,  0.0000,  0.0000)
  17 Pt     8.421642    6.482994    8.292102    ( 0.0000,  0.0000,  0.0000)
  18 Pt    -0.000000   -0.000000   10.480324    ( 0.0000,  0.0000,  0.0000)
  19 Pt     2.807199    0.000011   10.480565    ( 0.0000,  0.0000,  0.0000)
  20 Pt     5.614443    0.000011   10.480565    ( 0.0000,  0.0000,  0.0000)
  21 Pt     1.403609    2.431100   10.480565    ( 0.0000,  0.0000,  0.0000)
  22 Pt     4.210821    2.431119   10.480438    ( 0.0000,  0.0000,  0.0000)
  23 Pt     7.018033    2.431100   10.480565    ( 0.0000,  0.0000,  0.0000)
  24 Pt     2.807231    4.862245   10.480565    ( 0.0000,  0.0000,  0.0000)
  25 Pt     5.614411    4.862245   10.480565    ( 0.0000,  0.0000,  0.0000)
  26 Pt     8.421642    4.862237   10.480444    ( 0.0000,  0.0000,  0.0000)

Unit cell:
           periodic     x           y           z      points  spacing
  1. axis:    yes    8.421642    0.000000    0.000000    42     0.1737
  2. axis:    yes    4.210821    7.293356    0.000000    42     0.1737
  3. axis:    no     0.000000    0.000000   16.584161    84     0.1974

  Lengths:   8.421642   8.421642  16.584161
  Angles:   90.000000  90.000000  60.000000

Effective grid spacing dv^(1/3) = 0.1901

     iter     time        total  log10-change:
                         energy  eigst   dens
iter:   1 16:05:48  -203.690861  -1.45
iter:   2 16:05:56  -204.801797  -1.49  -1.68
iter:   3 16:06:03  -196.106866  -2.30  -1.70
iter:   4 16:06:10  -195.963738  -3.40  -2.36
iter:   5 16:06:18  -195.876945  -3.44  -2.49
iter:   6 16:06:25  -195.867657c -3.82  -2.68
iter:   7 16:06:33  -195.863595c -3.87  -2.78
iter:   8 16:06:40  -195.848510c -4.57  -2.97
