
  ___ ___ ___ _ _ _  
 |   |   |_  | | | | 
 | | | | | . | | | | 
 |__ |  _|___|_____|  22.8.0
 |___|_|             

User:   gotols@vera53-4
Date:   Fri Feb 17 10:51:29 2023
Arch:   x86_64
Pid:    3607730
CWD:    /cephyr/users/gotols/Vera/TIF320-Computational-materials-and-molecular-physics-Assignments
Python: 3.10.4
gpaw:   /apps/Arch/software/GPAW/22.8.0-foss-2022a/lib/python3.10/site-packages/gpaw
_gpaw:  /apps/Arch/software/GPAW/22.8.0-foss-2022a/lib/python3.10/site-packages/
        _gpaw.cpython-310-x86_64-linux-gnu.so
ase:    /apps/Arch/software/ASE/3.22.1-foss-2022a/lib/python3.10/site-packages/ase (version 3.22.1)
numpy:  /apps/Arch/software/SciPy-bundle/2022.05-foss-2022a/lib/python3.10/site-packages/numpy (version 1.22.3)
scipy:  /apps/Arch/software/SciPy-bundle/2022.05-foss-2022a/lib/python3.10/site-packages/scipy (version 1.8.1)
libxc:  5.2.3
units:  Angstrom and eV
cores: 16
OpenMP: False
OMP_NUM_THREADS: 1

Input parameters:
  kpts: [4 4 1]
  mode: {ecut: 450.00000000000006,
         name: pw}
  xc: PBE

System changes: positions, numbers, cell, pbc, initial_charges, initial_magmoms 

Initialize ...

species:
  Rh:
    name: Rhodium
    id: 4e1d209aee696a641de1ffa1459b299f
    Z: 45.0
    valence: 15
    core: 30
    charge: 0.0
    file: /apps/Common/software/GPAW-setups/0.9.20000/Rh.PBE.gz
    compensation charges: {type: gauss,
                           rc: 0.38,
                           lmax: 2}
    cutoffs: {filter: 2.48,
              core: 2.35}
    valence states:
      #              energy  rcut
      - 5s(1.00)    -4.297   1.270
      - 4p(6.00)   -50.429   1.381
      - 5p(0.00)    -0.852   1.381
      - 4d(8.00)    -5.942   1.244
      -  s          22.915   1.270
      -  d          21.270   1.244
  
    # Using partial waves for Rh as LCAO basis

Reference energy: -3513635.469005  # eV

Spin-paired calculation

Convergence criteria:
 Maximum [total energy] change in last 3 cyles: 0.0005 eV / electron
 Maximum integral of absolute [dens]ity change: 0.0001 electrons / valence electron
 Maximum integral of absolute [eigenst]ate change: 4e-08 eV^2 / valence electron
 Maximum number of scf [iter]ations: 333
 (Square brackets indicate name in SCF output, whereas a 'c' in
 the SCF output indicates the quantity has converged.)

Symmetries present (total): 6

  ( 1  0  0)  ( 1 -1  0)  ( 0  1  0)  ( 0 -1  0)  (-1  1  0)  (-1  0  0)
  ( 0  1  0)  ( 0 -1  0)  ( 1  0  0)  ( 1 -1  0)  (-1  0  0)  (-1  1  0)
  ( 0  0  1)  ( 0  0  1)  ( 0  0  1)  ( 0  0  1)  ( 0  0  1)  ( 0  0  1)
Note: your k-points are not as symmetric as your crystal!

16 k-points: 4 x 4 x 1 Monkhorst-Pack grid
6 k-points in the irreducible part of the Brillouin zone
       k-points in crystal coordinates                weights
   0:     0.12500000   -0.12500000    0.00000000          2/16
   1:     0.12500000    0.12500000    0.00000000          2/16
   2:     0.37500000   -0.37500000    0.00000000          2/16
   3:     0.37500000   -0.12500000    0.00000000          4/16
   4:     0.37500000    0.12500000    0.00000000          4/16
   5:     0.37500000    0.37500000    0.00000000          2/16

Wave functions: Plane wave expansion
  Cutoff energy: 450.000 eV
  Number of coefficients (min, max): 20454, 20528
  Pulay-stress correction: 0.000000 eV/Ang^3 (de/decut=0.000000)
  Using FFTW library
  ScaLapack parameters: grid=1x1, blocksize=None
  Wavefunction extrapolation:
    Improved wavefunction reuse through dual PAW basis 

Occupation numbers: Fermi-Dirac:
  width: 0.1000  # eV
 

Eigensolver
   Davidson(niter=2) 

Densities:
  Coarse grid: 40*40*81 grid
  Fine grid: 80*80*162 grid
  Total Charge: 0.000000 

Density mixing:
  Method: separate
  Backend: pulay
  Linear mixing parameter: 0.05
  old densities: 5
  Damping of long wavelength oscillations: 50 

Hamiltonian:
  XC and Coulomb potentials evaluated on a 80*80*162 grid
  Using the PBE Exchange-Correlation functional
  External potential:
    NoExternalPotential
 

XC parameters: PBE with 2 nearest neighbor stencil

Memory estimate:
  Process memory now: 511.75 MiB
  Calculator: 336.62 MiB
    Density: 7.25 MiB
      Arrays: 3.26 MiB
      Localized functions: 2.71 MiB
      Mixer: 1.28 MiB
    Hamiltonian: 2.19 MiB
      Arrays: 2.13 MiB
      XC: 0.00 MiB
      Poisson: 0.00 MiB
      vbar: 0.06 MiB
    Wavefunctions: 327.19 MiB
      Arrays psit_nG: 232.11 MiB
      Eigensolver: 88.25 MiB
      Projections: 0.69 MiB
      Projectors: 0.88 MiB
      PW-descriptor: 5.27 MiB

Total number of cores used: 16
Parallelization over k-points: 2
Domain decomposition: 1 x 2 x 4

Number of atoms: 27
Number of atomic orbitals: 324
Number of bands in calculation: 247
Number of valence electrons: 405
Bands to converge: occupied

... initialized

Initializing position-dependent things.

Density initialized from atomic densities
Creating initial wave functions:
  247 bands from LCAO basis set

                                           
                                           
                                           
                                           
                Rh     Rh     Rh           
                                           
            Rh   RRh    RRh    Rh          
       Rh     Rh    Rh                     
             Rh    Rh     Rh               
        Rh     Rh   RRh    Rh    Rh        
                                           
                Rh    Rh     Rh            
           Rh    Rh     Rh                 
                                           
                                           
                                           
                                           

Positions:
   0 Rh     1.357645    0.783837    6.000000    ( 0.0000,  0.0000,  0.0000)
   1 Rh     4.072935    0.783837    6.000000    ( 0.0000,  0.0000,  0.0000)
   2 Rh     6.788225    0.783837    6.000000    ( 0.0000,  0.0000,  0.0000)
   3 Rh     2.715290    3.135347    6.000000    ( 0.0000,  0.0000,  0.0000)
   4 Rh     5.430580    3.135347    6.000000    ( 0.0000,  0.0000,  0.0000)
   5 Rh     8.145870    3.135347    6.000000    ( 0.0000,  0.0000,  0.0000)
   6 Rh     4.072935    5.486857    6.000000    ( 0.0000,  0.0000,  0.0000)
   7 Rh     6.788225    5.486857    6.000000    ( 0.0000,  0.0000,  0.0000)
   8 Rh     9.503515    5.486857    6.000000    ( 0.0000,  0.0000,  0.0000)
   9 Rh    -0.000000    1.567673    8.217025    ( 0.0000,  0.0000,  0.0000)
  10 Rh     2.715290    1.567673    8.217025    ( 0.0000,  0.0000,  0.0000)
  11 Rh     5.430580    1.567673    8.217025    ( 0.0000,  0.0000,  0.0000)
  12 Rh     1.357645    3.919184    8.217025    ( 0.0000,  0.0000,  0.0000)
  13 Rh     4.072935    3.919184    8.217025    ( 0.0000,  0.0000,  0.0000)
  14 Rh     6.788225    3.919184    8.217025    ( 0.0000,  0.0000,  0.0000)
  15 Rh     2.715290    6.270694    8.217025    ( 0.0000,  0.0000,  0.0000)
  16 Rh     5.430580    6.270694    8.217025    ( 0.0000,  0.0000,  0.0000)
  17 Rh     8.145870    6.270694    8.217025    ( 0.0000,  0.0000,  0.0000)
  18 Rh     0.000000    0.000000   10.434050    ( 0.0000,  0.0000,  0.0000)
  19 Rh     2.715290    0.000000   10.434050    ( 0.0000,  0.0000,  0.0000)
  20 Rh     5.430580    0.000000   10.434050    ( 0.0000,  0.0000,  0.0000)
  21 Rh     1.357645    2.351510   10.434050    ( 0.0000,  0.0000,  0.0000)
  22 Rh     4.072935    2.351510   10.434050    ( 0.0000,  0.0000,  0.0000)
  23 Rh     6.788225    2.351510   10.434050    ( 0.0000,  0.0000,  0.0000)
  24 Rh     2.715290    4.703020   10.434050    ( 0.0000,  0.0000,  0.0000)
  25 Rh     5.430580    4.703020   10.434050    ( 0.0000,  0.0000,  0.0000)
  26 Rh     8.145870    4.703020   10.434050    ( 0.0000,  0.0000,  0.0000)

Unit cell:
           periodic     x           y           z      points  spacing
  1. axis:    yes    8.145870    0.000000    0.000000    40     0.1764
  2. axis:    yes    4.072935    7.054530    0.000000    40     0.1764
  3. axis:    no     0.000000    0.000000   16.434050    81     0.2029

  Lengths:   8.145870   8.145870  16.434050
  Angles:   90.000000  90.000000  60.000000

Effective grid spacing dv^(1/3) = 0.1939

     iter     time        total  log10-change:
                         energy  eigst   dens
iter:   1 10:51:54  -195.883802
iter:   2 10:52:01  -193.492397  -1.35  -1.37
iter:   3 10:52:07  -186.506966  -0.49  -1.39
iter:   4 10:52:14  -183.915531  -1.95  -1.74
iter:   5 10:52:20  -183.176248  -2.27  -1.95
iter:   6 10:52:26  -183.379691  -2.49  -2.10
iter:   7 10:52:33  -182.871987  -2.26  -2.08
iter:   8 10:52:39  -182.827473  -3.44  -2.41
iter:   9 10:52:45  -182.799810c -2.98  -2.53
iter:  10 10:52:52  -182.796187c -3.95  -2.96
iter:  11 10:52:58  -182.796786c -4.40  -3.14
iter:  12 10:53:04  -182.797013c -4.59  -3.17
iter:  13 10:53:11  -182.798100c -4.58  -3.34
iter:  14 10:53:17  -182.797975c -5.26  -3.70
iter:  15 10:53:23  -182.797920c -5.54  -3.73
iter:  16 10:53:30  -182.797869c -5.87  -3.82
iter:  17 10:53:36  -182.797705c -6.06  -3.87
iter:  18 10:53:42  -182.797687c -6.41  -4.13c
iter:  19 10:53:49  -182.797697c -6.83  -4.29c
iter:  20 10:53:55  -182.797736c -6.73  -4.30c
iter:  21 10:54:01  -182.797732c -6.89  -4.36c
iter:  22 10:54:08  -182.797727c -7.05  -4.21c
iter:  23 10:54:14  -182.797715c -7.61c -4.70c

Converged after 23 iterations.

Dipole moment: (-0.234576, -0.135433, 0.000058) |e|*Ang

Energy contributions relative to reference atoms: (reference = -3513635.469005)

Kinetic:       -189.865087
Potential:     +108.436918
External:        +0.000000
XC:             -98.386836
Entropy (-ST):   -1.701171
Local:           -2.132124
--------------------------
Free energy:   -183.648301
Extrapolated:  -182.797715

Showing only first 2 kpts
 Kpt  Band  Eigenvalues  Occupancy
  0   200      1.55128    1.16004
  0   201      1.60577    0.88941
  0   202      1.60578    0.88935
  0   203      1.60740    0.88137

  1   200      1.50197    1.38673
  1   201      1.50198    1.38671
  1   202      1.56777    1.07878
  1   203      1.61441    0.84698


Fermi level: 1.58356

No gap

Forces in eV/Ang:
  0 Rh    0.00029    0.00017    0.43923
  1 Rh   -0.00000    0.00024    0.43921
  2 Rh   -0.00029    0.00017    0.43923
  3 Rh    0.00021   -0.00012    0.43921
  4 Rh   -0.00021   -0.00012    0.43921
  5 Rh    0.00000    0.00001    0.43931
  6 Rh    0.00000   -0.00034    0.43923
  7 Rh    0.00001   -0.00000    0.43931
  8 Rh   -0.00001   -0.00000    0.43931
  9 Rh    0.00000    0.00030   -0.00044
 10 Rh    0.00018    0.00011   -0.00045
 11 Rh   -0.00018    0.00011   -0.00045
 12 Rh    0.00001   -0.00000   -0.00048
 13 Rh    0.00000   -0.00021   -0.00045
 14 Rh   -0.00001   -0.00000   -0.00048
 15 Rh   -0.00026   -0.00015   -0.00044
 16 Rh    0.00026   -0.00015   -0.00044
 17 Rh   -0.00000    0.00001   -0.00048
 18 Rh   -0.00000    0.00000   -0.43934
 19 Rh    0.00033    0.00013   -0.43939
 20 Rh   -0.00033    0.00013   -0.43939
 21 Rh    0.00028    0.00022   -0.43939
 22 Rh    0.00000    0.00000   -0.43934
 23 Rh   -0.00028    0.00022   -0.43939
 24 Rh   -0.00005   -0.00035   -0.43939
 25 Rh    0.00005   -0.00035   -0.43939
 26 Rh   -0.00000    0.00000   -0.43944

System changes: positions 

Initializing position-dependent things.

Density initialized from wave functions
                                           
                                           
                                           
                                           
                                           
                Rh     Rh     Rh           
            Rh   RRh    RRh    Rh          
       Rh     Rh    Rh                     
             Rh    Rh     Rh               
        Rh     Rh   RRh    Rh    Rh        
                                           
                Rh    Rh     Rh            
           Rh    Rh     Rh                 
                                           
                                           
                                           
                                           

Positions:
   0 Rh     1.357708    0.783873    6.094262    ( 0.0000,  0.0000,  0.0000)
   1 Rh     4.072935    0.783889    6.094259    ( 0.0000,  0.0000,  0.0000)
   2 Rh     6.788162    0.783873    6.094262    ( 0.0000,  0.0000,  0.0000)
   3 Rh     2.715335    3.135321    6.094259    ( 0.0000,  0.0000,  0.0000)
   4 Rh     5.430535    3.135321    6.094259    ( 0.0000,  0.0000,  0.0000)
   5 Rh     8.145870    3.135349    6.094279    ( 0.0000,  0.0000,  0.0000)
   6 Rh     4.072935    5.486784    6.094262    ( 0.0000,  0.0000,  0.0000)
   7 Rh     6.788227    5.486856    6.094279    ( 0.0000,  0.0000,  0.0000)
   8 Rh     9.503513    5.486856    6.094279    ( 0.0000,  0.0000,  0.0000)
   9 Rh    -0.000000    1.567738    8.216930    ( 0.0000,  0.0000,  0.0000)
  10 Rh     2.715329    1.567696    8.216929    ( 0.0000,  0.0000,  0.0000)
  11 Rh     5.430541    1.567696    8.216929    ( 0.0000,  0.0000,  0.0000)
  12 Rh     1.357647    3.919183    8.216921    ( 0.0000,  0.0000,  0.0000)
  13 Rh     4.072935    3.919138    8.216929    ( 0.0000,  0.0000,  0.0000)
  14 Rh     6.788224    3.919183    8.216921    ( 0.0000,  0.0000,  0.0000)
  15 Rh     2.715234    6.270661    8.216930    ( 0.0000,  0.0000,  0.0000)
  16 Rh     5.430636    6.270661    8.216930    ( 0.0000,  0.0000,  0.0000)
  17 Rh     8.145870    6.270696    8.216921    ( 0.0000,  0.0000,  0.0000)
  18 Rh    -0.000000    0.000000   10.339765    ( 0.0000,  0.0000,  0.0000)
  19 Rh     2.715361    0.000028   10.339754    ( 0.0000,  0.0000,  0.0000)
  20 Rh     5.430509    0.000028   10.339754    ( 0.0000,  0.0000,  0.0000)
  21 Rh     1.357704    2.351557   10.339754    ( 0.0000,  0.0000,  0.0000)
  22 Rh     4.072935    2.351510   10.339764    ( 0.0000,  0.0000,  0.0000)
  23 Rh     6.788166    2.351557   10.339754    ( 0.0000,  0.0000,  0.0000)
  24 Rh     2.715279    4.702945   10.339754    ( 0.0000,  0.0000,  0.0000)
  25 Rh     5.430591    4.702945   10.339754    ( 0.0000,  0.0000,  0.0000)
  26 Rh     8.145870    4.703020   10.339743    ( 0.0000,  0.0000,  0.0000)

Unit cell:
           periodic     x           y           z      points  spacing
  1. axis:    yes    8.145870    0.000000    0.000000    40     0.1764
  2. axis:    yes    4.072935    7.054530    0.000000    40     0.1764
  3. axis:    no     0.000000    0.000000   16.434050    81     0.2029

  Lengths:   8.145870   8.145870  16.434050
  Angles:   90.000000  90.000000  60.000000

Effective grid spacing dv^(1/3) = 0.1939

     iter     time        total  log10-change:
                         energy  eigst   dens
iter:   1 10:54:22  -209.180692  -0.66
iter:   2 10:54:29  -184.435366  -1.00  -1.25
iter:   3 10:54:35  -183.583319  -2.66  -1.96
iter:   4 10:54:41  -183.537715  -2.30  -2.05
iter:   5 10:54:48  -183.053881  -2.89  -2.06
iter:   6 10:54:54  -183.028049  -3.53  -2.38
iter:   7 10:55:00  -183.020025c -3.56  -2.47
iter:   8 10:55:07  -183.002685c -3.44  -2.60
iter:   9 10:55:13  -182.999677c -4.09  -2.98
iter:  10 10:55:19  -182.998140c -4.67  -3.05
iter:  11 10:55:26  -182.995591c -4.27  -3.16
iter:  12 10:55:32  -182.995061c -5.15  -3.52
iter:  13 10:55:38  -182.995098c -5.61  -3.73
iter:  14 10:55:45  -182.995193c -5.62  -3.79
iter:  15 10:55:51  -182.995421c -5.86  -3.92
iter:  16 10:55:58  -182.995432c -6.39  -4.22c
iter:  17 10:56:04  -182.995418c -6.66  -4.25c
iter:  18 10:56:10  -182.995420c -6.69  -4.33c
iter:  19 10:56:17  -182.995410c -7.03  -4.41c
iter:  20 10:56:23  -182.995410c -7.27  -4.58c
iter:  21 10:56:29  -182.995412c -7.16  -4.77c
iter:  22 10:56:36  -182.995415c -7.61c -5.00c

Converged after 22 iterations.

Dipole moment: (-0.282294, -0.162983, -0.000083) |e|*Ang

Energy contributions relative to reference atoms: (reference = -3513635.469005)

Kinetic:       -122.858332
Potential:      +52.796729
External:        +0.000000
XC:            -109.930582
Entropy (-ST):   -1.552007
Local:           -2.227226
--------------------------
Free energy:   -183.771419
Extrapolated:  -182.995415

Showing only first 2 kpts
 Kpt  Band  Eigenvalues  Occupancy
  0   200      1.59183    1.27135
  0   201      1.59185    1.27126
  0   202      1.63817    1.04660
  0   203      1.70994    0.69752

  1   200      1.51746    1.57177
  1   201      1.59094    1.27545
  1   202      1.59095    1.27542
  1   203      1.68989    0.79115


Fermi level: 1.64749

No gap

Forces in eV/Ang:
  0 Rh   -0.00066   -0.00038   -0.34635
  1 Rh    0.00000   -0.00056   -0.34669
  2 Rh    0.00066   -0.00038   -0.34635
  3 Rh   -0.00048    0.00028   -0.34669
  4 Rh    0.00048    0.00028   -0.34669
  5 Rh   -0.00000   -0.00005   -0.34693
  6 Rh    0.00000    0.00076   -0.34635
  7 Rh   -0.00004    0.00002   -0.34693
  8 Rh    0.00004    0.00002   -0.34693
  9 Rh    0.00000   -0.00106    0.00145
 10 Rh   -0.00078   -0.00045    0.00140
 11 Rh    0.00078   -0.00045    0.00140
 12 Rh   -0.00015    0.00008    0.00107
 13 Rh    0.00000    0.00090    0.00140
 14 Rh    0.00015    0.00008    0.00107
 15 Rh    0.00092    0.00053    0.00145
 16 Rh   -0.00092    0.00053    0.00145
 17 Rh   -0.00000   -0.00017    0.00107
 18 Rh   -0.00000    0.00000    0.34546
 19 Rh   -0.00058   -0.00033    0.34597
 20 Rh    0.00058   -0.00033    0.34597
 21 Rh   -0.00057   -0.00034    0.34597
 22 Rh   -0.00000    0.00000    0.34614
 23 Rh    0.00057   -0.00034    0.34597
 24 Rh    0.00001    0.00067    0.34597
 25 Rh   -0.00001    0.00067    0.34597
 26 Rh    0.00000    0.00000    0.34604

System changes: positions 

Initializing position-dependent things.

Density initialized from wave functions
                                           
                                           
                                           
                                           
                Rh     Rh     Rh           
                                           
            Rh   RRh    RRh    Rh          
       Rh     Rh    Rh                     
             Rh    Rh     Rh               
        Rh     Rh   RRh    Rh    Rh        
                                           
                Rh    Rh     Rh            
           Rh    Rh     Rh                 
                                           
                                           
                                           
                                           

Positions:
   0 Rh     1.357595    0.783808    6.061267    ( 0.0000,  0.0000,  0.0000)
   1 Rh     4.072935    0.783792    6.061192    ( 0.0000,  0.0000,  0.0000)
   2 Rh     6.788275    0.783808    6.061267    ( 0.0000,  0.0000,  0.0000)
   3 Rh     2.715252    3.135369    6.061192    ( 0.0000,  0.0000,  0.0000)
   4 Rh     5.430618    3.135369    6.061192    ( 0.0000,  0.0000,  0.0000)
   5 Rh     8.145870    3.135340    6.061168    ( 0.0000,  0.0000,  0.0000)
   6 Rh     4.072935    5.486914    6.061267    ( 0.0000,  0.0000,  0.0000)
   7 Rh     6.788219    5.486861    6.061168    ( 0.0000,  0.0000,  0.0000)
   8 Rh     9.503521    5.486861    6.061168    ( 0.0000,  0.0000,  0.0000)
   9 Rh    -0.000000    1.567540    8.217199    ( 0.0000,  0.0000,  0.0000)
  10 Rh     2.715180    1.567610    8.217187    ( 0.0000,  0.0000,  0.0000)
  11 Rh     5.430690    1.567610    8.217187    ( 0.0000,  0.0000,  0.0000)
  12 Rh     1.357616    3.919200    8.217104    ( 0.0000,  0.0000,  0.0000)
  13 Rh     4.072935    3.919310    8.217187    ( 0.0000,  0.0000,  0.0000)
  14 Rh     6.788254    3.919200    8.217104    ( 0.0000,  0.0000,  0.0000)
  15 Rh     2.715406    6.270761    8.217199    ( 0.0000,  0.0000,  0.0000)
  16 Rh     5.430464    6.270761    8.217199    ( 0.0000,  0.0000,  0.0000)
  17 Rh     8.145870    6.270660    8.217104    ( 0.0000,  0.0000,  0.0000)
  18 Rh    -0.000000    0.000000   10.372558    ( 0.0000,  0.0000,  0.0000)
  19 Rh     2.715267   -0.000030   10.372652    ( 0.0000,  0.0000,  0.0000)
  20 Rh     5.430603   -0.000030   10.372652    ( 0.0000,  0.0000,  0.0000)
  21 Rh     1.357608    2.351505   10.372652    ( 0.0000,  0.0000,  0.0000)
  22 Rh     4.072935    2.351510   10.372701    ( 0.0000,  0.0000,  0.0000)
  23 Rh     6.788262    2.351505   10.372652    ( 0.0000,  0.0000,  0.0000)
  24 Rh     2.715276    4.703055   10.372652    ( 0.0000,  0.0000,  0.0000)
  25 Rh     5.430594    4.703055   10.372652    ( 0.0000,  0.0000,  0.0000)
  26 Rh     8.145870    4.703020   10.372650    ( 0.0000,  0.0000,  0.0000)

Unit cell:
           periodic     x           y           z      points  spacing
  1. axis:    yes    8.145870    0.000000    0.000000    40     0.1764
  2. axis:    yes    4.072935    7.054530    0.000000    40     0.1764
  3. axis:    no     0.000000    0.000000   16.434050    81     0.2029

  Lengths:   8.145870   8.145870  16.434050
  Angles:   90.000000  90.000000  60.000000

Effective grid spacing dv^(1/3) = 0.1939

     iter     time        total  log10-change:
                         energy  eigst   dens
iter:   1 10:56:44  -187.109300  -1.53
iter:   2 10:56:50  -183.274816  -1.92  -1.71
iter:   3 10:56:57  -183.256408  -3.22  -2.33
iter:   4 10:57:03  -183.203337c -3.63  -2.32
iter:   5 10:57:09  -183.091538c -3.01  -2.39
iter:   6 10:57:16  -183.085674c -3.60  -2.83
iter:   7 10:57:22  -183.086358c -4.12  -2.95
iter:   8 10:57:28  -183.083780c -4.45  -3.03
iter:   9 10:57:35  -183.083090c -5.02  -3.37
iter:  10 10:57:41  -183.083721c -4.68  -3.43
iter:  11 10:57:48  -183.083078c -5.15  -3.42
iter:  12 10:57:54  -183.082731c -5.55  -3.54
iter:  13 10:58:00  -183.082850c -5.81  -3.94
iter:  14 10:58:07  -183.082833c -6.59  -4.18c
iter:  15 10:58:13  -183.082764c -6.59  -4.21c
iter:  16 10:58:19  -183.082715c -6.96  -4.29c
iter:  17 10:58:26  -183.082695c -7.15  -4.44c
iter:  18 10:58:32  -183.082677c -7.57c -4.60c

Converged after 18 iterations.

Dipole moment: (-0.259203, -0.149651, 0.000100) |e|*Ang

Energy contributions relative to reference atoms: (reference = -3513635.469005)

Kinetic:       -149.691053
Potential:      +75.152347
External:        +0.000000
XC:            -105.548643
Entropy (-ST):   -1.600692
Local:           -2.194982
--------------------------
Free energy:   -183.883023
Extrapolated:  -183.082677

Showing only first 2 kpts
 Kpt  Band  Eigenvalues  Occupancy
  0   200      1.60003    1.13147
  0   201      1.60005    1.13137
  0   202      1.60863    1.08900
  0   203      1.67614    0.75667

  1   200      1.53914    1.41089
  1   201      1.56122    1.31518
  1   202      1.56122    1.31515
  1   203      1.67474    0.76323


Fermi level: 1.62647

No gap
