
  ___ ___ ___ _ _ _  
 |   |   |_  | | | | 
 | | | | | . | | | | 
 |__ |  _|___|_____|  22.8.0
 |___|_|             

User:   gotols@vera56-4
Date:   Fri Feb 17 09:45:53 2023
Arch:   x86_64
Pid:    241660
CWD:    /cephyr/users/gotols/Vera/TIF320-Computational-materials-and-molecular-physics-Assignments
Python: 3.10.4
gpaw:   /apps/Arch/software/GPAW/22.8.0-foss-2022a/lib/python3.10/site-packages/gpaw
_gpaw:  /apps/Arch/software/GPAW/22.8.0-foss-2022a/lib/python3.10/site-packages/
        _gpaw.cpython-310-x86_64-linux-gnu.so
ase:    /apps/Arch/software/ASE/3.22.1-foss-2022a/lib/python3.10/site-packages/ase (version 3.22.1)
numpy:  /apps/Arch/software/SciPy-bundle/2022.05-foss-2022a/lib/python3.10/site-packages/numpy (version 1.22.3)
scipy:  /apps/Arch/software/SciPy-bundle/2022.05-foss-2022a/lib/python3.10/site-packages/scipy (version 1.8.1)
libxc:  5.2.3
units:  Angstrom and eV
cores: 16
OpenMP: False
OMP_NUM_THREADS: 1

Input parameters:
  kpts: [4 4 1]
  mode: {ecut: 450.00000000000006,
         name: pw}

System changes: positions, numbers, cell, pbc, initial_charges, initial_magmoms 

Initialize ...

species:
  Rh:
    name: Rhodium
    id: 7bf0fc3ba60e4b351a39647852e1f1f5
    Z: 45.0
    valence: 15
    core: 30
    charge: 0.0
    file: /apps/Common/software/GPAW-setups/0.9.20000/Rh.LDA.gz
    compensation charges: {type: gauss,
                           rc: 0.38,
                           lmax: 2}
    cutoffs: {filter: 2.48,
              core: 2.35}
    valence states:
      #              energy  rcut
      - 5s(1.00)    -4.582   1.270
      - 4p(6.00)   -50.540   1.381
      - 5p(0.00)    -0.969   1.381
      - 4d(8.00)    -6.147   1.244
      -  s          22.630   1.270
      -  d          21.064   1.244
  
    # Using partial waves for Rh as LCAO basis

Reference energy: -3510246.516309  # eV

Spin-paired calculation

Convergence criteria:
 Maximum [total energy] change in last 3 cyles: 0.0005 eV / electron
 Maximum integral of absolute [dens]ity change: 0.0001 electrons / valence electron
 Maximum integral of absolute [eigenst]ate change: 4e-08 eV^2 / valence electron
 Maximum number of scf [iter]ations: 333
 (Square brackets indicate name in SCF output, whereas a 'c' in
 the SCF output indicates the quantity has converged.)

Symmetries present (total): 6

  ( 1  0  0)  ( 1 -1  0)  ( 0  1  0)  ( 0 -1  0)  (-1  1  0)  (-1  0  0)
  ( 0  1  0)  ( 0 -1  0)  ( 1  0  0)  ( 1 -1  0)  (-1  0  0)  (-1  1  0)
  ( 0  0  1)  ( 0  0  1)  ( 0  0  1)  ( 0  0  1)  ( 0  0  1)  ( 0  0  1)
Note: your k-points are not as symmetric as your crystal!

16 k-points: 4 x 4 x 1 Monkhorst-Pack grid
6 k-points in the irreducible part of the Brillouin zone
       k-points in crystal coordinates                weights
   0:     0.12500000   -0.12500000    0.00000000          2/16
   1:     0.12500000    0.12500000    0.00000000          2/16
   2:     0.37500000   -0.37500000    0.00000000          2/16
   3:     0.37500000   -0.12500000    0.00000000          4/16
   4:     0.37500000    0.12500000    0.00000000          4/16
   5:     0.37500000    0.37500000    0.00000000          2/16

Wave functions: Plane wave expansion
  Cutoff energy: 450.000 eV
  Number of coefficients (min, max): 20454, 20528
  Pulay-stress correction: 0.000000 eV/Ang^3 (de/decut=0.000000)
  Using FFTW library
  ScaLapack parameters: grid=1x1, blocksize=None
  Wavefunction extrapolation:
    Improved wavefunction reuse through dual PAW basis 

Occupation numbers: Fermi-Dirac:
  width: 0.1000  # eV
 

Eigensolver
   Davidson(niter=2) 

Densities:
  Coarse grid: 40*40*81 grid
  Fine grid: 80*80*162 grid
  Total Charge: 0.000000 

Density mixing:
  Method: separate
  Backend: pulay
  Linear mixing parameter: 0.05
  old densities: 5
  Damping of long wavelength oscillations: 50 

Hamiltonian:
  XC and Coulomb potentials evaluated on a 80*80*162 grid
  Using the LDA Exchange-Correlation functional
  External potential:
    NoExternalPotential
 

Memory estimate:
  Process memory now: 469.20 MiB
  Calculator: 336.62 MiB
    Density: 7.25 MiB
      Arrays: 3.26 MiB
      Localized functions: 2.71 MiB
      Mixer: 1.28 MiB
    Hamiltonian: 2.19 MiB
      Arrays: 2.13 MiB
      XC: 0.00 MiB
      Poisson: 0.00 MiB
      vbar: 0.06 MiB
    Wavefunctions: 327.19 MiB
      Arrays psit_nG: 232.11 MiB
      Eigensolver: 88.25 MiB
      Projections: 0.69 MiB
      Projectors: 0.88 MiB
      PW-descriptor: 5.27 MiB

Total number of cores used: 16
Parallelization over k-points: 2
Domain decomposition: 1 x 2 x 4

Number of atoms: 27
Number of atomic orbitals: 324
Number of bands in calculation: 247
Number of valence electrons: 405
Bands to converge: occupied

... initialized

Initializing position-dependent things.

Density initialized from atomic densities
Creating initial wave functions:
  247 bands from LCAO basis set

                                           
                                           
                                           
                                           
                Rh     Rh     Rh           
                                           
            Rh   RRh    RRh    Rh          
       Rh     Rh    Rh                     
             Rh    Rh     Rh               
        Rh     Rh   RRh    Rh    Rh        
                                           
                Rh    Rh     Rh            
           Rh    Rh     Rh                 
                                           
                                           
                                           
                                           

Positions:
   0 Rh     1.357645    0.783837    6.000000    ( 0.0000,  0.0000,  0.0000)
   1 Rh     4.072935    0.783837    6.000000    ( 0.0000,  0.0000,  0.0000)
   2 Rh     6.788225    0.783837    6.000000    ( 0.0000,  0.0000,  0.0000)
   3 Rh     2.715290    3.135347    6.000000    ( 0.0000,  0.0000,  0.0000)
   4 Rh     5.430580    3.135347    6.000000    ( 0.0000,  0.0000,  0.0000)
   5 Rh     8.145870    3.135347    6.000000    ( 0.0000,  0.0000,  0.0000)
   6 Rh     4.072935    5.486857    6.000000    ( 0.0000,  0.0000,  0.0000)
   7 Rh     6.788225    5.486857    6.000000    ( 0.0000,  0.0000,  0.0000)
   8 Rh     9.503515    5.486857    6.000000    ( 0.0000,  0.0000,  0.0000)
   9 Rh    -0.000000    1.567673    8.217025    ( 0.0000,  0.0000,  0.0000)
  10 Rh     2.715290    1.567673    8.217025    ( 0.0000,  0.0000,  0.0000)
  11 Rh     5.430580    1.567673    8.217025    ( 0.0000,  0.0000,  0.0000)
  12 Rh     1.357645    3.919184    8.217025    ( 0.0000,  0.0000,  0.0000)
  13 Rh     4.072935    3.919184    8.217025    ( 0.0000,  0.0000,  0.0000)
  14 Rh     6.788225    3.919184    8.217025    ( 0.0000,  0.0000,  0.0000)
  15 Rh     2.715290    6.270694    8.217025    ( 0.0000,  0.0000,  0.0000)
  16 Rh     5.430580    6.270694    8.217025    ( 0.0000,  0.0000,  0.0000)
  17 Rh     8.145870    6.270694    8.217025    ( 0.0000,  0.0000,  0.0000)
  18 Rh     0.000000    0.000000   10.434050    ( 0.0000,  0.0000,  0.0000)
  19 Rh     2.715290    0.000000   10.434050    ( 0.0000,  0.0000,  0.0000)
  20 Rh     5.430580    0.000000   10.434050    ( 0.0000,  0.0000,  0.0000)
  21 Rh     1.357645    2.351510   10.434050    ( 0.0000,  0.0000,  0.0000)
  22 Rh     4.072935    2.351510   10.434050    ( 0.0000,  0.0000,  0.0000)
  23 Rh     6.788225    2.351510   10.434050    ( 0.0000,  0.0000,  0.0000)
  24 Rh     2.715290    4.703020   10.434050    ( 0.0000,  0.0000,  0.0000)
  25 Rh     5.430580    4.703020   10.434050    ( 0.0000,  0.0000,  0.0000)
  26 Rh     8.145870    4.703020   10.434050    ( 0.0000,  0.0000,  0.0000)

Unit cell:
           periodic     x           y           z      points  spacing
  1. axis:    yes    8.145870    0.000000    0.000000    40     0.1764
  2. axis:    yes    4.072935    7.054530    0.000000    40     0.1764
  3. axis:    no     0.000000    0.000000   16.434050    81     0.2029

  Lengths:   8.145870   8.145870  16.434050
  Angles:   90.000000  90.000000  60.000000

Effective grid spacing dv^(1/3) = 0.1939

     iter     time        total  log10-change:
                         energy  eigst   dens
iter:   1 09:46:17  -231.915407
iter:   2 09:46:23  -228.958897  -1.28  -1.35
iter:   3 09:46:30  -218.594033  -0.50  -1.37
iter:   4 09:46:36  -217.030794  -2.01  -1.82
iter:   5 09:46:42  -216.283689  -2.08  -1.98
iter:   6 09:46:48  -216.475009  -2.29  -2.11
iter:   7 09:46:54  -216.051509  -2.36  -2.11
iter:   8 09:47:00  -215.980890  -3.57  -2.33
iter:   9 09:47:07  -215.921175c -2.88  -2.46
iter:  10 09:47:13  -215.915474c -3.92  -2.94
iter:  11 09:47:19  -215.916087c -4.31  -3.11
iter:  12 09:47:25  -215.916748c -4.49  -3.14
iter:  13 09:47:31  -215.918133c -4.64  -3.26
iter:  14 09:47:38  -215.917406c -5.15  -3.37
iter:  15 09:47:44  -215.916915c -5.31  -3.49
iter:  16 09:47:50  -215.916854c -5.80  -3.68
iter:  17 09:47:56  -215.916790c -6.04  -3.74
iter:  18 09:48:02  -215.916787c -6.03  -3.82
iter:  19 09:48:08  -215.916818c -6.60  -3.97
iter:  20 09:48:15  -215.916772c -7.00  -3.96
iter:  21 09:48:21  -215.916745c -7.22  -4.08c
iter:  22 09:48:27  -215.916713c -6.84  -4.20c
iter:  23 09:48:33  -215.916698c -6.95  -4.41c
iter:  24 09:48:39  -215.916695c -7.23  -4.48c
iter:  25 09:48:45  -215.916712c -7.54c -4.51c

Converged after 25 iterations.

Dipole moment: (-0.264517, -0.152719, -0.000486) |e|*Ang

Energy contributions relative to reference atoms: (reference = -3510246.516309)

Kinetic:       -249.274898
Potential:     +163.506618
External:        +0.000000
XC:            -124.859132
Entropy (-ST):   -1.704462
Local:           -4.437069
--------------------------
Free energy:   -216.768942
Extrapolated:  -215.916712

Showing only first 2 kpts
 Kpt  Band  Eigenvalues  Occupancy
  0   200      1.19086    1.19149
  0   201      1.25184    0.88944
  0   202      1.25653    0.86633
  0   203      1.25657    0.86616

  1   200      1.14277    1.40895
  1   201      1.14279    1.40888
  1   202      1.22606    1.01789
  1   203      1.25691    0.86447


Fermi level: 1.22964

No gap

Forces in eV/Ang:
  0 Rh   -0.00004   -0.00002    1.12054
  1 Rh    0.00000   -0.00004    1.12054
  2 Rh    0.00004   -0.00002    1.12054
  3 Rh   -0.00003    0.00002    1.12054
  4 Rh    0.00003    0.00002    1.12054
  5 Rh    0.00000   -0.00001    1.12053
  6 Rh    0.00000    0.00005    1.12054
  7 Rh   -0.00001    0.00001    1.12053
  8 Rh    0.00001    0.00001    1.12053
  9 Rh   -0.00000   -0.00003    0.00185
 10 Rh   -0.00006   -0.00003    0.00187
 11 Rh    0.00006   -0.00003    0.00187
 12 Rh   -0.00003    0.00002    0.00187
 13 Rh   -0.00000    0.00007    0.00187
 14 Rh    0.00003    0.00002    0.00187
 15 Rh    0.00003    0.00001    0.00185
 16 Rh   -0.00003    0.00001    0.00185
 17 Rh    0.00000   -0.00004    0.00187
 18 Rh    0.00000    0.00000   -1.11796
 19 Rh   -0.00003   -0.00004   -1.11795
 20 Rh    0.00003   -0.00004   -1.11795
 21 Rh   -0.00004   -0.00001   -1.11795
 22 Rh   -0.00000    0.00000   -1.11796
 23 Rh    0.00004   -0.00001   -1.11795
 24 Rh   -0.00002    0.00004   -1.11795
 25 Rh    0.00002    0.00004   -1.11795
 26 Rh    0.00000    0.00000   -1.11795

System changes: positions 

Initializing position-dependent things.

Density initialized from wave functions
                                           
                                           
                                           
                                           
                                           
                Rh     Rh     Rh           
            Rh   RRh    RRh    Rh          
       Rh     Rh    Rh                     
             Rh    Rh     Rh               
        Rh     Rh   RRh    Rh    Rh        
                                           
                Rh    Rh     Rh            
           Rh    Rh     Rh                 
                                           
                                           
                                           
                                           

Positions:
   0 Rh     1.357642    0.783835    6.094390    ( 0.0000,  0.0000,  0.0000)
   1 Rh     4.072935    0.783833    6.094390    ( 0.0000,  0.0000,  0.0000)
   2 Rh     6.788229    0.783835    6.094390    ( 0.0000,  0.0000,  0.0000)
   3 Rh     2.715287    3.135349    6.094390    ( 0.0000,  0.0000,  0.0000)
   4 Rh     5.430583    3.135349    6.094390    ( 0.0000,  0.0000,  0.0000)
   5 Rh     8.145870    3.135346    6.094389    ( 0.0000,  0.0000,  0.0000)
   6 Rh     4.072935    5.486861    6.094390    ( 0.0000,  0.0000,  0.0000)
   7 Rh     6.788224    5.486858    6.094389    ( 0.0000,  0.0000,  0.0000)
   8 Rh     9.503516    5.486858    6.094389    ( 0.0000,  0.0000,  0.0000)
   9 Rh    -0.000000    1.567671    8.217181    ( 0.0000,  0.0000,  0.0000)
  10 Rh     2.715285    1.567671    8.217182    ( 0.0000,  0.0000,  0.0000)
  11 Rh     5.430585    1.567671    8.217182    ( 0.0000,  0.0000,  0.0000)
  12 Rh     1.357642    3.919185    8.217182    ( 0.0000,  0.0000,  0.0000)
  13 Rh     4.072935    3.919189    8.217182    ( 0.0000,  0.0000,  0.0000)
  14 Rh     6.788228    3.919185    8.217182    ( 0.0000,  0.0000,  0.0000)
  15 Rh     2.715292    6.270695    8.217181    ( 0.0000,  0.0000,  0.0000)
  16 Rh     5.430578    6.270695    8.217181    ( 0.0000,  0.0000,  0.0000)
  17 Rh     8.145870    6.270690    8.217182    ( 0.0000,  0.0000,  0.0000)
  18 Rh     0.000000    0.000000   10.339878    ( 0.0000,  0.0000,  0.0000)
  19 Rh     2.715288   -0.000003   10.339878    ( 0.0000,  0.0000,  0.0000)
  20 Rh     5.430582   -0.000003   10.339878    ( 0.0000,  0.0000,  0.0000)
  21 Rh     1.357641    2.351510   10.339878    ( 0.0000,  0.0000,  0.0000)
  22 Rh     4.072935    2.351510   10.339877    ( 0.0000,  0.0000,  0.0000)
  23 Rh     6.788229    2.351510   10.339878    ( 0.0000,  0.0000,  0.0000)
  24 Rh     2.715289    4.703024   10.339878    ( 0.0000,  0.0000,  0.0000)
  25 Rh     5.430582    4.703024   10.339878    ( 0.0000,  0.0000,  0.0000)
  26 Rh     8.145870    4.703020   10.339878    ( 0.0000,  0.0000,  0.0000)

Unit cell:
           periodic     x           y           z      points  spacing
  1. axis:    yes    8.145870    0.000000    0.000000    40     0.1764
  2. axis:    yes    4.072935    7.054530    0.000000    40     0.1764
  3. axis:    no     0.000000    0.000000   16.434050    81     0.2029

  Lengths:   8.145870   8.145870  16.434050
  Angles:   90.000000  90.000000  60.000000

Effective grid spacing dv^(1/3) = 0.1939

     iter     time        total  log10-change:
                         energy  eigst   dens
iter:   1 09:48:54  -244.573967  -0.65
iter:   2 09:49:00  -218.841781  -0.99  -1.24
iter:   3 09:49:06  -218.185797  -2.56  -1.94
iter:   4 09:49:12  -218.101958  -2.82  -1.96
iter:   5 09:49:18  -217.404676  -2.27  -1.98
iter:   6 09:49:25  -217.371663  -3.15  -2.36
iter:   7 09:49:31  -217.388089c -3.43  -2.47
iter:   8 09:49:37  -217.341887c -3.19  -2.46
iter:   9 09:49:43  -217.333988c -3.59  -2.94
iter:  10 09:49:49  -217.334115c -4.45  -3.04
iter:  11 09:49:55  -217.332726c -4.73  -3.05
iter:  12 09:50:02  -217.327632c -4.29  -3.10
iter:  13 09:50:08  -217.327605c -4.85  -3.57
iter:  14 09:50:14  -217.327528c -5.57  -3.79
iter:  15 09:50:20  -217.327567c -5.82  -3.82
iter:  16 09:50:26  -217.327862c -5.72  -3.88
iter:  17 09:50:33  -217.327798c -6.24  -4.30c
iter:  18 09:50:39  -217.327814c -6.49  -4.44c
iter:  19 09:50:45  -217.327808c -6.83  -4.46c
iter:  20 09:50:51  -217.327821c -7.12  -4.48c
iter:  21 09:50:57  -217.327819c -7.37  -4.47c
iter:  22 09:51:03  -217.327818c -7.73c -4.62c

Converged after 22 iterations.

Dipole moment: (-0.311835, -0.180038, 0.000149) |e|*Ang

Energy contributions relative to reference atoms: (reference = -3510246.516309)

Kinetic:       -179.204949
Potential:     +105.150735
External:        +0.000000
XC:            -137.803018
Entropy (-ST):   -1.555453
Local:           -4.692861
--------------------------
Free energy:   -218.105545
Extrapolated:  -217.327818

Showing only first 2 kpts
 Kpt  Band  Eigenvalues  Occupancy
  0   200      1.24725    1.23643
  0   201      1.24729    1.23626
  0   202      1.28019    1.07615
  0   203      1.35763    0.69875

  1   200      1.17511    1.53826
  1   201      1.23427    1.29669
  1   202      1.23428    1.29665
  1   203      1.33858    0.78763


Fermi level: 1.29545

No gap

Forces in eV/Ang:
  0 Rh    0.00003    0.00002    0.41975
  1 Rh    0.00000    0.00003    0.41978
  2 Rh   -0.00003    0.00002    0.41975
  3 Rh    0.00003   -0.00002    0.41978
  4 Rh   -0.00003   -0.00002    0.41978
  5 Rh    0.00000    0.00001    0.41977
  6 Rh   -0.00000   -0.00003    0.41975
  7 Rh    0.00001   -0.00000    0.41977
  8 Rh   -0.00001   -0.00000    0.41977
  9 Rh    0.00000    0.00004   -0.00092
 10 Rh    0.00007    0.00004   -0.00093
 11 Rh   -0.00007    0.00004   -0.00093
 12 Rh    0.00004   -0.00002   -0.00092
 13 Rh    0.00000   -0.00008   -0.00093
 14 Rh   -0.00004   -0.00002   -0.00092
 15 Rh   -0.00003   -0.00002   -0.00092
 16 Rh    0.00003   -0.00002   -0.00092
 17 Rh    0.00000    0.00005   -0.00092
 18 Rh   -0.00000    0.00000   -0.41986
 19 Rh    0.00002    0.00002   -0.41988
 20 Rh   -0.00002    0.00002   -0.41988
 21 Rh    0.00003    0.00001   -0.41988
 22 Rh   -0.00000    0.00000   -0.41989
 23 Rh   -0.00003    0.00001   -0.41988
 24 Rh    0.00001   -0.00003   -0.41988
 25 Rh   -0.00001   -0.00003   -0.41988
 26 Rh   -0.00000    0.00000   -0.41985

System changes: positions 

Initializing position-dependent things.

Density initialized from wave functions
                                           
                                           
                                           
                                           
                                           
                Rh     Rh     Rh           
            Rh   RRh    RRh    Rh          
       Rh     Rh    Rh                     
             Rh    Rh     Rh               
        Rh     Rh   RRh    Rh    Rh        
                                           
                Rh    Rh     Rh            
           Rh    Rh     Rh                 
                                           
                                           
                                           
                                           

Positions:
   0 Rh     1.357645    0.783836    6.141052    ( 0.0000,  0.0000,  0.0000)
   1 Rh     4.072935    0.783837    6.141055    ( 0.0000,  0.0000,  0.0000)
   2 Rh     6.788226    0.783836    6.141052    ( 0.0000,  0.0000,  0.0000)
   3 Rh     2.715290    3.135347    6.141055    ( 0.0000,  0.0000,  0.0000)
   4 Rh     5.430580    3.135347    6.141055    ( 0.0000,  0.0000,  0.0000)
   5 Rh     8.145870    3.135347    6.141054    ( 0.0000,  0.0000,  0.0000)
   6 Rh     4.072935    5.486858    6.141052    ( 0.0000,  0.0000,  0.0000)
   7 Rh     6.788225    5.486857    6.141054    ( 0.0000,  0.0000,  0.0000)
   8 Rh     9.503515    5.486857    6.141054    ( 0.0000,  0.0000,  0.0000)
   9 Rh    -0.000000    1.567675    8.217083    ( 0.0000,  0.0000,  0.0000)
  10 Rh     2.715293    1.567675    8.217083    ( 0.0000,  0.0000,  0.0000)
  11 Rh     5.430577    1.567675    8.217083    ( 0.0000,  0.0000,  0.0000)
  12 Rh     1.357647    3.919183    8.217083    ( 0.0000,  0.0000,  0.0000)
  13 Rh     4.072935    3.919180    8.217083    ( 0.0000,  0.0000,  0.0000)
  14 Rh     6.788224    3.919183    8.217083    ( 0.0000,  0.0000,  0.0000)
  15 Rh     2.715289    6.270693    8.217083    ( 0.0000,  0.0000,  0.0000)
  16 Rh     5.430582    6.270693    8.217083    ( 0.0000,  0.0000,  0.0000)
  17 Rh     8.145870    6.270696    8.217083    ( 0.0000,  0.0000,  0.0000)
  18 Rh    -0.000000    0.000000   10.293206    ( 0.0000,  0.0000,  0.0000)
  19 Rh     2.715290   -0.000001   10.293204    ( 0.0000,  0.0000,  0.0000)
  20 Rh     5.430580   -0.000001   10.293204    ( 0.0000,  0.0000,  0.0000)
  21 Rh     1.357644    2.351510   10.293204    ( 0.0000,  0.0000,  0.0000)
  22 Rh     4.072935    2.351510   10.293202    ( 0.0000,  0.0000,  0.0000)
  23 Rh     6.788226    2.351510   10.293204    ( 0.0000,  0.0000,  0.0000)
  24 Rh     2.715290    4.703021   10.293204    ( 0.0000,  0.0000,  0.0000)
  25 Rh     5.430580    4.703021   10.293204    ( 0.0000,  0.0000,  0.0000)
  26 Rh     8.145870    4.703020   10.293207    ( 0.0000,  0.0000,  0.0000)

Unit cell:
           periodic     x           y           z      points  spacing
  1. axis:    yes    8.145870    0.000000    0.000000    40     0.1764
  2. axis:    yes    4.072935    7.054530    0.000000    40     0.1764
  3. axis:    no     0.000000    0.000000   16.434050    81     0.2029

  Lengths:   8.145870   8.145870  16.434050
  Angles:   90.000000  90.000000  60.000000

Effective grid spacing dv^(1/3) = 0.1939

     iter     time        total  log10-change:
                         energy  eigst   dens
iter:   1 09:51:12  -224.463176  -1.25
iter:   2 09:51:18  -217.841701  -1.64  -1.55
iter:   3 09:51:24  -217.703048  -3.09  -2.24
iter:   4 09:51:30  -217.741857c -2.93  -2.32
iter:   5 09:51:37  -217.532489  -3.21  -2.27
iter:   6 09:51:43  -217.530989  -3.80  -2.70
iter:   7 09:51:49  -217.521549c -3.96  -2.84
iter:   8 09:51:55  -217.518719c -4.09  -2.90
iter:   9 09:52:01  -217.516474c -4.28  -3.25
iter:  10 09:52:07  -217.516466c -5.16  -3.40
iter:  11 09:52:14  -217.516637c -5.39  -3.47
iter:  12 09:52:20  -217.515669c -5.42  -3.45
iter:  13 09:52:26  -217.515362c -5.33  -3.78
iter:  14 09:52:32  -217.515366c -6.26  -4.12c
iter:  15 09:52:38  -217.515484c -6.40  -4.16c
iter:  16 09:52:45  -217.515531c -6.60  -4.34c
iter:  17 09:52:51  -217.515538c -6.98  -4.65c
iter:  18 09:52:57  -217.515534c -7.31  -4.69c
iter:  19 09:53:03  -217.515538c -7.71c -4.77c

Converged after 19 iterations.

Dipole moment: (-0.339239, -0.195859, 0.000211) |e|*Ang

Energy contributions relative to reference atoms: (reference = -3510246.516309)

Kinetic:       -135.039351
Potential:      +68.452140
External:        +0.000000
XC:            -145.312151
Entropy (-ST):   -1.495801
Local:           -4.868275
--------------------------
Free energy:   -218.263438
Extrapolated:  -217.515538

Showing only first 2 kpts
 Kpt  Band  Eigenvalues  Occupancy
  0   200      1.23368    1.43381
  0   201      1.23371    1.43367
  0   202      1.32493    1.00831
  0   203      1.40604    0.62244

  1   200      1.13981    1.73241
  1   201      1.27822    1.23725
  1   202      1.27823    1.23722
  1   203      1.35986    0.83518


Fermi level: 1.32659

No gap

Forces in eV/Ang:
  0 Rh    0.00003    0.00002   -0.05004
  1 Rh    0.00000    0.00001   -0.05011
  2 Rh   -0.00003    0.00002   -0.05004
  3 Rh    0.00001   -0.00000   -0.05011
  4 Rh   -0.00001   -0.00000   -0.05011
  5 Rh    0.00000    0.00002   -0.05006
  6 Rh    0.00000   -0.00003   -0.05004
  7 Rh    0.00002   -0.00001   -0.05006
  8 Rh   -0.00002   -0.00001   -0.05006
  9 Rh   -0.00000   -0.00003    0.00132
 10 Rh   -0.00006   -0.00003    0.00132
 11 Rh    0.00006   -0.00003    0.00132
 12 Rh   -0.00003    0.00002    0.00131
 13 Rh    0.00000    0.00006    0.00132
 14 Rh    0.00003    0.00002    0.00131
 15 Rh    0.00002    0.00001    0.00132
 16 Rh   -0.00002    0.00001    0.00132
 17 Rh   -0.00000   -0.00003    0.00131
 18 Rh    0.00000    0.00000    0.04748
 19 Rh    0.00002    0.00003    0.04752
 20 Rh   -0.00002    0.00003    0.04752
 21 Rh    0.00003    0.00000    0.04752
 22 Rh   -0.00000    0.00000    0.04758
 23 Rh   -0.00003    0.00000    0.04752
 24 Rh    0.00001   -0.00003    0.04752
 25 Rh   -0.00001   -0.00003    0.04752
 26 Rh    0.00000    0.00000    0.04747

System changes: positions 

Initializing position-dependent things.

Density initialized from wave functions
                                           
                                           
                                           
                                           
                                           
                Rh     Rh     Rh           
            Rh   RRh    RRh    Rh          
       Rh     Rh    Rh                     
             Rh    Rh     Rh               
        Rh     Rh   RRh    Rh    Rh        
                                           
                Rh    Rh     Rh            
           Rh    Rh     Rh                 
                                           
                                           
                                           
                                           

Positions:
   0 Rh     1.357648    0.783838    6.137841    ( 0.0000,  0.0000,  0.0000)
   1 Rh     4.072935    0.783838    6.137838    ( 0.0000,  0.0000,  0.0000)
   2 Rh     6.788223    0.783838    6.137841    ( 0.0000,  0.0000,  0.0000)
   3 Rh     2.715291    3.135346    6.137838    ( 0.0000,  0.0000,  0.0000)
   4 Rh     5.430579    3.135346    6.137838    ( 0.0000,  0.0000,  0.0000)
   5 Rh     8.145870    3.135349    6.137840    ( 0.0000,  0.0000,  0.0000)
   6 Rh     4.072935    5.486854    6.137841    ( 0.0000,  0.0000,  0.0000)
   7 Rh     6.788227    5.486856    6.137840    ( 0.0000,  0.0000,  0.0000)
   8 Rh     9.503514    5.486856    6.137840    ( 0.0000,  0.0000,  0.0000)
   9 Rh    -0.000000    1.567673    8.217184    ( 0.0000,  0.0000,  0.0000)
  10 Rh     2.715289    1.567673    8.217184    ( 0.0000,  0.0000,  0.0000)
  11 Rh     5.430581    1.567673    8.217184    ( 0.0000,  0.0000,  0.0000)
  12 Rh     1.357645    3.919184    8.217184    ( 0.0000,  0.0000,  0.0000)
  13 Rh     4.072935    3.919185    8.217184    ( 0.0000,  0.0000,  0.0000)
  14 Rh     6.788226    3.919184    8.217184    ( 0.0000,  0.0000,  0.0000)
  15 Rh     2.715290    6.270694    8.217184    ( 0.0000,  0.0000,  0.0000)
  16 Rh     5.430580    6.270694    8.217184    ( 0.0000,  0.0000,  0.0000)
  17 Rh     8.145870    6.270693    8.217184    ( 0.0000,  0.0000,  0.0000)
  18 Rh     0.000000    0.000000   10.296178    ( 0.0000,  0.0000,  0.0000)
  19 Rh     2.715292    0.000002   10.296180    ( 0.0000,  0.0000,  0.0000)
  20 Rh     5.430578    0.000002   10.296180    ( 0.0000,  0.0000,  0.0000)
  21 Rh     1.357648    2.351510   10.296180    ( 0.0000,  0.0000,  0.0000)
  22 Rh     4.072935    2.351510   10.296183    ( 0.0000,  0.0000,  0.0000)
  23 Rh     6.788222    2.351510   10.296180    ( 0.0000,  0.0000,  0.0000)
  24 Rh     2.715291    4.703018   10.296180    ( 0.0000,  0.0000,  0.0000)
  25 Rh     5.430579    4.703018   10.296180    ( 0.0000,  0.0000,  0.0000)
  26 Rh     8.145870    4.703020   10.296179    ( 0.0000,  0.0000,  0.0000)

Unit cell:
           periodic     x           y           z      points  spacing
  1. axis:    yes    8.145870    0.000000    0.000000    40     0.1764
  2. axis:    yes    4.072935    7.054530    0.000000    40     0.1764
  3. axis:    no     0.000000    0.000000   16.434050    81     0.2029

  Lengths:   8.145870   8.145870  16.434050
  Angles:   90.000000  90.000000  60.000000

Effective grid spacing dv^(1/3) = 0.1939

     iter     time        total  log10-change:
                         energy  eigst   dens
iter:   1 09:53:11  -217.557539  -3.60
iter:   2 09:53:18  -217.519046  -3.97  -2.73
iter:   3 09:53:24  -217.527801c -4.64  -3.17
iter:   4 09:53:30  -217.516152c -5.11  -2.96
iter:   5 09:53:36  -217.515803c -5.06  -3.51
iter:   6 09:53:42  -217.515433c -5.62  -3.84
iter:   7 09:53:48  -217.515515c -6.72  -3.94
iter:   8 09:53:55  -217.515644c -6.75  -3.97
iter:   9 09:54:01  -217.515628c -5.96  -4.00
iter:  10 09:54:07  -217.515626c -7.12  -4.26c
iter:  11 09:54:13  -217.515621c -7.54c -4.36c

Converged after 11 iterations.

Dipole moment: (-0.337721, -0.194983, -0.000096) |e|*Ang

Energy contributions relative to reference atoms: (reference = -3510246.516309)

Kinetic:       -139.226210
Potential:      +72.021878
External:        +0.000000
XC:            -144.723463
Entropy (-ST):   -1.499483
Local:           -4.838085
--------------------------
Free energy:   -218.265362
Extrapolated:  -217.515621

Showing only first 2 kpts
 Kpt  Band  Eigenvalues  Occupancy
  0   200      1.23415    1.42087
  0   201      1.23419    1.42073
  0   202      1.32127    1.01317
  0   203      1.40227    0.62707

  1   200      1.14170    1.72161
  1   201      1.27468    1.24127
  1   202      1.27468    1.24125
  1   203      1.35790    0.83161


Fermi level: 1.32390

No gap

Forces in eV/Ang:
  0 Rh   -0.00020   -0.00011    0.01154
  1 Rh    0.00000   -0.00013    0.01166
  2 Rh    0.00020   -0.00011    0.01154
  3 Rh   -0.00012    0.00007    0.01166
  4 Rh    0.00012    0.00007    0.01166
  5 Rh    0.00000   -0.00009    0.01156
  6 Rh    0.00000    0.00023    0.01154
  7 Rh   -0.00008    0.00005    0.01156
  8 Rh    0.00008    0.00005    0.01156
  9 Rh    0.00000   -0.00009   -0.00475
 10 Rh   -0.00012   -0.00007   -0.00476
 11 Rh    0.00012   -0.00007   -0.00476
 12 Rh   -0.00005    0.00003   -0.00472
 13 Rh    0.00000    0.00013   -0.00476
 14 Rh    0.00005    0.00003   -0.00472
 15 Rh    0.00007    0.00004   -0.00475
 16 Rh   -0.00007    0.00004   -0.00475
 17 Rh   -0.00000   -0.00005   -0.00472
 18 Rh   -0.00000    0.00000   -0.00439
 19 Rh   -0.00012   -0.00017   -0.00444
 20 Rh    0.00012   -0.00017   -0.00444
 21 Rh   -0.00021   -0.00002   -0.00444
 22 Rh    0.00000    0.00000   -0.00457
 23 Rh    0.00021   -0.00002   -0.00444
 24 Rh   -0.00009    0.00019   -0.00444
 25 Rh    0.00009    0.00019   -0.00444
 26 Rh    0.00000    0.00000   -0.00439

System changes: positions 

Initializing position-dependent things.

Density initialized from wave functions
                                           
                                           
                                           
                                           
                                           
                Rh     Rh     Rh           
            Rh   RRh    RRh    Rh          
       Rh     Rh    Rh                     
             Rh    Rh     Rh               
        Rh     Rh   RRh    Rh    Rh        
                                           
                Rh    Rh     Rh            
           Rh    Rh     Rh                 
                                           
                                           
                                           
                                           

Positions:
   0 Rh     1.357619    0.783822    6.138921    ( 0.0000,  0.0000,  0.0000)
   1 Rh     4.072935    0.783821    6.138952    ( 0.0000,  0.0000,  0.0000)
   2 Rh     6.788251    0.783822    6.138921    ( 0.0000,  0.0000,  0.0000)
   3 Rh     2.715277    3.135355    6.138952    ( 0.0000,  0.0000,  0.0000)
   4 Rh     5.430593    3.135355    6.138952    ( 0.0000,  0.0000,  0.0000)
   5 Rh     8.145870    3.135333    6.138929    ( 0.0000,  0.0000,  0.0000)
   6 Rh     4.072935    5.486887    6.138921    ( 0.0000,  0.0000,  0.0000)
   7 Rh     6.788213    5.486864    6.138929    ( 0.0000,  0.0000,  0.0000)
   8 Rh     9.503528    5.486864    6.138929    ( 0.0000,  0.0000,  0.0000)
   9 Rh    -0.000000    1.567674    8.216449    ( 0.0000,  0.0000,  0.0000)
  10 Rh     2.715294    1.567676    8.216447    ( 0.0000,  0.0000,  0.0000)
  11 Rh     5.430576    1.567676    8.216447    ( 0.0000,  0.0000,  0.0000)
  12 Rh     1.357648    3.919182    8.216454    ( 0.0000,  0.0000,  0.0000)
  13 Rh     4.072935    3.919179    8.216447    ( 0.0000,  0.0000,  0.0000)
  14 Rh     6.788222    3.919182    8.216454    ( 0.0000,  0.0000,  0.0000)
  15 Rh     2.715290    6.270694    8.216449    ( 0.0000,  0.0000,  0.0000)
  16 Rh     5.430580    6.270694    8.216449    ( 0.0000,  0.0000,  0.0000)
  17 Rh     8.145870    6.270697    8.216454    ( 0.0000,  0.0000,  0.0000)
  18 Rh    -0.000000    0.000000   10.296660    ( 0.0000,  0.0000,  0.0000)
  19 Rh     2.715274   -0.000023   10.296645    ( 0.0000,  0.0000,  0.0000)
  20 Rh     5.430596   -0.000023   10.296645    ( 0.0000,  0.0000,  0.0000)
  21 Rh     1.357618    2.351508   10.296645    ( 0.0000,  0.0000,  0.0000)
  22 Rh     4.072935    2.351510   10.296615    ( 0.0000,  0.0000,  0.0000)
  23 Rh     6.788252    2.351508   10.296645    ( 0.0000,  0.0000,  0.0000)
  24 Rh     2.715278    4.703045   10.296645    ( 0.0000,  0.0000,  0.0000)
  25 Rh     5.430592    4.703045   10.296645    ( 0.0000,  0.0000,  0.0000)
  26 Rh     8.145870    4.703020   10.296663    ( 0.0000,  0.0000,  0.0000)

Unit cell:
           periodic     x           y           z      points  spacing
  1. axis:    yes    8.145870    0.000000    0.000000    40     0.1764
  2. axis:    yes    4.072935    7.054530    0.000000    40     0.1764
  3. axis:    no     0.000000    0.000000   16.434050    81     0.2029

  Lengths:   8.145870   8.145870  16.434050
  Angles:   90.000000  90.000000  60.000000

Effective grid spacing dv^(1/3) = 0.1939

     iter     time        total  log10-change:
                         energy  eigst   dens
iter:   1 09:54:21  -217.546548  -4.26
iter:   2 09:54:27  -217.702482  -3.63  -2.79
iter:   3 09:54:34  -217.515633c -4.07  -2.40
iter:   4 09:54:40  -217.515767c -5.44  -3.85
iter:   5 09:54:46  -217.515736c -6.04  -3.92
iter:   6 09:54:52  -217.515581c -6.26  -4.22c
iter:   7 09:54:58  -217.515612c -7.12  -4.29c
iter:   8 09:55:04  -217.515616c -7.25  -4.47c
iter:   9 09:55:11  -217.515597c -7.34  -4.67c
iter:  10 09:55:17  -217.515597c -7.98c -4.86c

Converged after 10 iterations.

Dipole moment: (-0.334743, -0.193264, -0.000764) |e|*Ang

Energy contributions relative to reference atoms: (reference = -3510246.516309)

Kinetic:       -138.261034
Potential:      +71.177062
External:        +0.000000
XC:            -144.825267
Entropy (-ST):   -1.499016
Local:           -4.856850
--------------------------
Free energy:   -218.265105
Extrapolated:  -217.515597

Showing only first 2 kpts
 Kpt  Band  Eigenvalues  Occupancy
  0   200      1.23487    1.42241
  0   201      1.23491    1.42227
  0   202      1.32245    1.01272
  0   203      1.40345    0.62668

  1   200      1.14229    1.72281
  1   201      1.27583    1.24097
  1   202      1.27584    1.24095
  1   203      1.35895    0.83184


Fermi level: 1.32500

No gap

Forces in eV/Ang:
  0 Rh    0.00049    0.00029   -0.03539
  1 Rh    0.00000    0.00030   -0.03592
  2 Rh   -0.00049    0.00029   -0.03539
  3 Rh    0.00026   -0.00015   -0.03592
  4 Rh   -0.00026   -0.00015   -0.03592
  5 Rh    0.00000    0.00026   -0.03543
  6 Rh   -0.00000   -0.00057   -0.03539
  7 Rh    0.00023   -0.00013   -0.03543
  8 Rh   -0.00023   -0.00013   -0.03543
  9 Rh    0.00000   -0.00001    0.02686
 10 Rh   -0.00011   -0.00006    0.02695
 11 Rh    0.00011   -0.00006    0.02695
 12 Rh   -0.00009    0.00005    0.02689
 13 Rh    0.00000    0.00013    0.02695
 14 Rh    0.00009    0.00005    0.02689
 15 Rh    0.00001    0.00001    0.02686
 16 Rh   -0.00001    0.00001    0.02686
 17 Rh    0.00000   -0.00010    0.02689
 18 Rh    0.00000    0.00000    0.00742
 19 Rh    0.00028    0.00044    0.00776
 20 Rh   -0.00028    0.00044    0.00776
 21 Rh    0.00052    0.00002    0.00776
 22 Rh   -0.00000    0.00000    0.00825
 23 Rh   -0.00052    0.00002    0.00776
 24 Rh    0.00024   -0.00046    0.00776
 25 Rh   -0.00024   -0.00046    0.00776
 26 Rh    0.00000    0.00000    0.00754

System changes: positions 

Initializing position-dependent things.

Density initialized from wave functions
                                           
                                           
                                           
                                           
                                           
                Rh     Rh     Rh           
            Rh   RRh    RRh    Rh          
       Rh     Rh    Rh                     
             Rh    Rh     Rh               
        Rh     Rh   RRh    Rh    Rh        
                                           
                Rh    Rh     Rh            
           Rh    Rh     Rh                 
                                           
                                           
                                           
                                           

Positions:
   0 Rh     1.357626    0.783826    6.138036    ( 0.0000,  0.0000,  0.0000)
   1 Rh     4.072935    0.783824    6.138053    ( 0.0000,  0.0000,  0.0000)
   2 Rh     6.788245    0.783826    6.138036    ( 0.0000,  0.0000,  0.0000)
   3 Rh     2.715279    3.135353    6.138053    ( 0.0000,  0.0000,  0.0000)
   4 Rh     5.430591    3.135353    6.138053    ( 0.0000,  0.0000,  0.0000)
   5 Rh     8.145870    3.135337    6.138043    ( 0.0000,  0.0000,  0.0000)
   6 Rh     4.072935    5.486879    6.138036    ( 0.0000,  0.0000,  0.0000)
   7 Rh     6.788217    5.486862    6.138043    ( 0.0000,  0.0000,  0.0000)
   8 Rh     9.503523    5.486862    6.138043    ( 0.0000,  0.0000,  0.0000)
   9 Rh    -0.000000    1.567667    8.217209    ( 0.0000,  0.0000,  0.0000)
  10 Rh     2.715281    1.567668    8.217210    ( 0.0000,  0.0000,  0.0000)
  11 Rh     5.430589    1.567668    8.217210    ( 0.0000,  0.0000,  0.0000)
  12 Rh     1.357641    3.919186    8.217217    ( 0.0000,  0.0000,  0.0000)
  13 Rh     4.072935    3.919194    8.217210    ( 0.0000,  0.0000,  0.0000)
  14 Rh     6.788229    3.919186    8.217217    ( 0.0000,  0.0000,  0.0000)
  15 Rh     2.715296    6.270697    8.217209    ( 0.0000,  0.0000,  0.0000)
  16 Rh     5.430574    6.270697    8.217209    ( 0.0000,  0.0000,  0.0000)
  17 Rh     8.145870    6.270689    8.217217    ( 0.0000,  0.0000,  0.0000)
  18 Rh    -0.000000    0.000000   10.296867    ( 0.0000,  0.0000,  0.0000)
  19 Rh     2.715278   -0.000016   10.296862    ( 0.0000,  0.0000,  0.0000)
  20 Rh     5.430592   -0.000016   10.296862    ( 0.0000,  0.0000,  0.0000)
  21 Rh     1.357625    2.351508   10.296862    ( 0.0000,  0.0000,  0.0000)
  22 Rh     4.072935    2.351510   10.296845    ( 0.0000,  0.0000,  0.0000)
  23 Rh     6.788245    2.351508   10.296862    ( 0.0000,  0.0000,  0.0000)
  24 Rh     2.715282    4.703039   10.296862    ( 0.0000,  0.0000,  0.0000)
  25 Rh     5.430588    4.703039   10.296862    ( 0.0000,  0.0000,  0.0000)
  26 Rh     8.145870    4.703020   10.296875    ( 0.0000,  0.0000,  0.0000)

Unit cell:
           periodic     x           y           z      points  spacing
  1. axis:    yes    8.145870    0.000000    0.000000    40     0.1764
  2. axis:    yes    4.072935    7.054530    0.000000    40     0.1764
  3. axis:    no     0.000000    0.000000   16.434050    81     0.2029

  Lengths:   8.145870   8.145870  16.434050
  Angles:   90.000000  90.000000  60.000000

Effective grid spacing dv^(1/3) = 0.1939

     iter     time        total  log10-change:
                         energy  eigst   dens
iter:   1 09:55:25  -217.532723  -4.48
iter:   2 09:55:31  -217.604313  -3.92  -2.91
iter:   3 09:55:37  -217.515531c -4.36  -2.57
iter:   4 09:55:44  -217.515623c -5.80  -3.90
iter:   5 09:55:50  -217.515627c -6.04  -3.98
iter:   6 09:55:56  -217.515603c -6.88  -4.44c
iter:   7 09:56:02  -217.515586c -7.53c -4.44c

Converged after 7 iterations.

Dipole moment: (-0.335724, -0.193830, 0.000521) |e|*Ang

Energy contributions relative to reference atoms: (reference = -3510246.516309)

Kinetic:       -138.249027
Potential:      +71.103401
External:        +0.000000
XC:            -144.775698
Entropy (-ST):   -1.499672
Local:           -4.844426
--------------------------
Free energy:   -218.265422
Extrapolated:  -217.515586

Showing only first 2 kpts
 Kpt  Band  Eigenvalues  Occupancy
  0   200      1.23509    1.41978
  0   201      1.23513    1.41963
  0   202      1.32184    1.01370
  0   203      1.40281    0.62764

  1   200      1.14279    1.72062
  1   201      1.27523    1.24187
  1   202      1.27523    1.24184
  1   203      1.35854    0.83179


Fermi level: 1.32458

No gap

Forces in eV/Ang:
  0 Rh    0.00031    0.00018   -0.01014
  1 Rh    0.00000    0.00025   -0.01033
  2 Rh   -0.00031    0.00018   -0.01014
  3 Rh    0.00021   -0.00012   -0.01033
  4 Rh   -0.00021   -0.00012   -0.01033
  5 Rh    0.00000    0.00011   -0.01015
  6 Rh    0.00000   -0.00036   -0.01014
  7 Rh    0.00009   -0.00005   -0.01015
  8 Rh   -0.00009   -0.00005   -0.01015
  9 Rh    0.00000    0.00018    0.00505
 10 Rh    0.00029    0.00017    0.00507
 11 Rh   -0.00029    0.00017    0.00507
 12 Rh    0.00015   -0.00008    0.00501
 13 Rh   -0.00000   -0.00034    0.00507
 14 Rh   -0.00015   -0.00008    0.00501
 15 Rh   -0.00015   -0.00009    0.00505
 16 Rh    0.00015   -0.00009    0.00505
 17 Rh   -0.00000    0.00017    0.00501
 18 Rh   -0.00000    0.00000    0.00781
 19 Rh    0.00019    0.00026    0.00788
 20 Rh   -0.00019    0.00026    0.00788
 21 Rh    0.00032    0.00004    0.00788
 22 Rh   -0.00000    0.00000    0.00808
 23 Rh   -0.00032    0.00004    0.00788
 24 Rh    0.00013   -0.00029    0.00788
 25 Rh   -0.00013   -0.00029    0.00788
 26 Rh    0.00000    0.00000    0.00778

System changes: positions 

Initializing position-dependent things.

Density initialized from wave functions
                                           
                                           
                                           
                                           
                                           
                Rh     Rh     Rh           
            Rh   RRh    RRh    Rh          
       Rh     Rh    Rh                     
             Rh    Rh     Rh               
        Rh     Rh   RRh    Rh    Rh        
                                           
                Rh    Rh     Rh            
           Rh    Rh     Rh                 
                                           
                                           
                                           
                                           

Positions:
   0 Rh     1.358175    0.784143    6.142801    ( 0.0000,  0.0000,  0.0000)
   1 Rh     4.072935    0.784332    6.142724    ( 0.0000,  0.0000,  0.0000)
   2 Rh     6.787695    0.784143    6.142801    ( 0.0000,  0.0000,  0.0000)
   3 Rh     2.715719    3.135099    6.142724    ( 0.0000,  0.0000,  0.0000)
   4 Rh     5.430151    3.135099    6.142724    ( 0.0000,  0.0000,  0.0000)
   5 Rh     8.145870    3.135458    6.142918    ( 0.0000,  0.0000,  0.0000)
   6 Rh     4.072935    5.486245    6.142801    ( 0.0000,  0.0000,  0.0000)
   7 Rh     6.788321    5.486802    6.142918    ( 0.0000,  0.0000,  0.0000)
   8 Rh     9.503419    5.486802    6.142918    ( 0.0000,  0.0000,  0.0000)
   9 Rh    -0.000000    1.568202    8.223959    ( 0.0000,  0.0000,  0.0000)
  10 Rh     2.716207    1.568203    8.223991    ( 0.0000,  0.0000,  0.0000)
  11 Rh     5.429663    1.568203    8.223991    ( 0.0000,  0.0000,  0.0000)
  12 Rh     1.358109    3.918916    8.223923    ( 0.0000,  0.0000,  0.0000)
  13 Rh     4.072935    3.918124    8.223991    ( 0.0000,  0.0000,  0.0000)
  14 Rh     6.787762    3.918916    8.223923    ( 0.0000,  0.0000,  0.0000)
  15 Rh     2.714832    6.270429    8.223959    ( 0.0000,  0.0000,  0.0000)
  16 Rh     5.431038    6.270429    8.223959    ( 0.0000,  0.0000,  0.0000)
  17 Rh     8.145870    6.271229    8.223923    ( 0.0000,  0.0000,  0.0000)
  18 Rh    -0.000000    0.000000   10.303471    ( 0.0000,  0.0000,  0.0000)
  19 Rh     2.715617    0.000431   10.303468    ( 0.0000,  0.0000,  0.0000)
  20 Rh     5.430253    0.000431   10.303468    ( 0.0000,  0.0000,  0.0000)
  21 Rh     1.358182    2.351578   10.303468    ( 0.0000,  0.0000,  0.0000)
  22 Rh     4.072935    2.351510   10.303580    ( 0.0000,  0.0000,  0.0000)
  23 Rh     6.787688    2.351578   10.303468    ( 0.0000,  0.0000,  0.0000)
  24 Rh     2.715500    4.702521   10.303468    ( 0.0000,  0.0000,  0.0000)
  25 Rh     5.430370    4.702521   10.303468    ( 0.0000,  0.0000,  0.0000)
  26 Rh     8.145870    4.703020   10.303438    ( 0.0000,  0.0000,  0.0000)

Unit cell:
           periodic     x           y           z      points  spacing
  1. axis:    yes    8.145870    0.000000    0.000000    40     0.1764
  2. axis:    yes    4.072935    7.054530    0.000000    40     0.1764
  3. axis:    no     0.000000    0.000000   16.434050    81     0.2029

  Lengths:   8.145870   8.145870  16.434050
  Angles:   90.000000  90.000000  60.000000

Effective grid spacing dv^(1/3) = 0.1939

     iter     time        total  log10-change:
                         energy  eigst   dens
iter:   1 09:56:10  -218.311177  -2.81
iter:   2 09:56:16  -222.126661  -2.21  -2.06
iter:   3 09:56:23  -217.521747  -2.63  -1.72
iter:   4 09:56:29  -217.519783  -3.97  -2.95
iter:   5 09:56:35  -217.517590c -4.70  -3.02
iter:   6 09:56:41  -217.515669c -4.87  -3.21
iter:   7 09:56:47  -217.515119c -5.51  -3.43
iter:   8 09:56:54  -217.515413c -5.85  -3.72
iter:   9 09:57:00  -217.515254c -6.08  -3.87
iter:  10 09:57:06  -217.515126c -6.15  -3.80
iter:  11 09:57:12  -217.515133c -6.71  -4.25c
iter:  12 09:57:18  -217.515136c -6.49  -4.31c
iter:  13 09:57:24  -217.515133c -7.29  -4.79c
iter:  14 09:57:31  -217.515130c -7.64c -4.91c

Converged after 14 iterations.

Dipole moment: (-0.370752, -0.214054, -0.000530) |e|*Ang

Energy contributions relative to reference atoms: (reference = -3510246.516309)

Kinetic:       -139.610359
Potential:      +72.282905
External:        +0.000000
XC:            -144.589105
Entropy (-ST):   -1.500713
Local:           -4.848215
--------------------------
Free energy:   -218.265486
Extrapolated:  -217.515130

Showing only first 2 kpts
 Kpt  Band  Eigenvalues  Occupancy
  0   200      1.23539    1.41680
  0   201      1.23567    1.41565
  0   202      1.32118    1.01483
  0   203      1.40211    0.62881

  1   200      1.14369    1.71741
  1   201      1.27461    1.24273
  1   202      1.27462    1.24270
  1   203      1.35842    0.83032


Fermi level: 1.32415

No gap

Forces in eV/Ang:
  0 Rh   -0.00440   -0.00254    0.00596
  1 Rh   -0.00000   -0.00448   -0.00116
  2 Rh    0.00440   -0.00254    0.00596
  3 Rh   -0.00388    0.00224   -0.00116
  4 Rh    0.00388    0.00224   -0.00116
  5 Rh   -0.00000   -0.00056    0.00088
  6 Rh   -0.00000    0.00509    0.00596
  7 Rh   -0.00049    0.00028    0.00088
  8 Rh    0.00049    0.00028    0.00088
  9 Rh   -0.00000   -0.00838   -0.01115
 10 Rh   -0.01372   -0.00792   -0.01208
 11 Rh    0.01372   -0.00792   -0.01208
 12 Rh   -0.00663    0.00383   -0.01228
 13 Rh    0.00000    0.01584   -0.01208
 14 Rh    0.00663    0.00383   -0.01228
 15 Rh    0.00726    0.00419   -0.01115
 16 Rh   -0.00726    0.00419   -0.01115
 17 Rh    0.00000   -0.00765   -0.01228
 18 Rh   -0.00000    0.00000    0.00410
 19 Rh   -0.00306   -0.00347    0.00853
 20 Rh    0.00306   -0.00347    0.00853
 21 Rh   -0.00453   -0.00091    0.00853
 22 Rh    0.00000    0.00000    0.01540
 23 Rh    0.00453   -0.00091    0.00853
 24 Rh   -0.00148    0.00438    0.00853
 25 Rh    0.00148    0.00438    0.00853
 26 Rh   -0.00000    0.00000    0.00493

System changes: positions 

Initializing position-dependent things.

Density initialized from wave functions
                                           
                                           
                                           
                                           
                                           
                Rh     Rh     Rh           
            Rh   RRh    RRh    Rh          
       Rh     Rh    Rh                     
             Rh    Rh     Rh               
        Rh     Rh   RRh    Rh    Rh        
                                           
                Rh    Rh     Rh            
           Rh    Rh     Rh                 
                                           
                                           
                                           
                                           

Positions:
   0 Rh     1.357754    0.783900    6.139925    ( 0.0000,  0.0000,  0.0000)
   1 Rh     4.072935    0.783923    6.139649    ( 0.0000,  0.0000,  0.0000)
   2 Rh     6.788116    0.783900    6.139925    ( 0.0000,  0.0000,  0.0000)
   3 Rh     2.715365    3.135304    6.139649    ( 0.0000,  0.0000,  0.0000)
   4 Rh     5.430505    3.135304    6.139649    ( 0.0000,  0.0000,  0.0000)
   5 Rh     8.145870    3.135385    6.139809    ( 0.0000,  0.0000,  0.0000)
   6 Rh     4.072935    5.486731    6.139925    ( 0.0000,  0.0000,  0.0000)
   7 Rh     6.788258    5.486838    6.139809    ( 0.0000,  0.0000,  0.0000)
   8 Rh     9.503482    5.486838    6.139809    ( 0.0000,  0.0000,  0.0000)
   9 Rh    -0.000000    1.567644    8.219834    ( 0.0000,  0.0000,  0.0000)
  10 Rh     2.715265    1.567659    8.219818    ( 0.0000,  0.0000,  0.0000)
  11 Rh     5.430605    1.567659    8.219818    ( 0.0000,  0.0000,  0.0000)
  12 Rh     1.357642    3.919185    8.219777    ( 0.0000,  0.0000,  0.0000)
  13 Rh     4.072935    3.919213    8.219818    ( 0.0000,  0.0000,  0.0000)
  14 Rh     6.788228    3.919185    8.219777    ( 0.0000,  0.0000,  0.0000)
  15 Rh     2.715315    6.270708    8.219834    ( 0.0000,  0.0000,  0.0000)
  16 Rh     5.430555    6.270708    8.219834    ( 0.0000,  0.0000,  0.0000)
  17 Rh     8.145870    6.270690    8.219777    ( 0.0000,  0.0000,  0.0000)
  18 Rh    -0.000000    0.000000   10.299534    ( 0.0000,  0.0000,  0.0000)
  19 Rh     2.715347    0.000093   10.299680    ( 0.0000,  0.0000,  0.0000)
  20 Rh     5.430524    0.000093   10.299680    ( 0.0000,  0.0000,  0.0000)
  21 Rh     1.357753    2.351513   10.299680    ( 0.0000,  0.0000,  0.0000)
  22 Rh     4.072935    2.351510   10.299964    ( 0.0000,  0.0000,  0.0000)
  23 Rh     6.788117    2.351513   10.299680    ( 0.0000,  0.0000,  0.0000)
  24 Rh     2.715342    4.702925   10.299680    ( 0.0000,  0.0000,  0.0000)
  25 Rh     5.430528    4.702925   10.299680    ( 0.0000,  0.0000,  0.0000)
  26 Rh     8.145870    4.703020   10.299543    ( 0.0000,  0.0000,  0.0000)

Unit cell:
           periodic     x           y           z      points  spacing
  1. axis:    yes    8.145870    0.000000    0.000000    40     0.1764
  2. axis:    yes    4.072935    7.054530    0.000000    40     0.1764
  3. axis:    no     0.000000    0.000000   16.434050    81     0.2029

  Lengths:   8.145870   8.145870  16.434050
  Angles:   90.000000  90.000000  60.000000

Effective grid spacing dv^(1/3) = 0.1939

     iter     time        total  log10-change:
                         energy  eigst   dens
iter:   1 09:57:39  -217.931833  -3.14
iter:   2 09:57:45  -219.953363  -2.51  -2.20
iter:   3 09:57:51  -217.516740  -2.92  -1.86
iter:   4 09:57:57  -217.517071  -4.28  -3.15
iter:   5 09:58:03  -217.516393c -5.12  -3.21
iter:   6 09:58:10  -217.515587c -5.36  -3.42
iter:   7 09:58:16  -217.515424c -5.84  -3.61
iter:   8 09:58:22  -217.515552c -6.23  -3.92
iter:   9 09:58:28  -217.515499c -6.45  -4.06c
iter:  10 09:58:34  -217.515411c -6.48  -3.91
iter:  11 09:58:41  -217.515413c -7.09  -4.46c
iter:  12 09:58:47  -217.515401c -7.04  -4.52c
iter:  13 09:58:53  -217.515394c -7.44c -4.69c

Converged after 13 iterations.

Dipole moment: (-0.345213, -0.199309, -0.000494) |e|*Ang

Energy contributions relative to reference atoms: (reference = -3510246.516309)

Kinetic:       -139.310719
Potential:      +72.040573
External:        +0.000000
XC:            -144.644544
Entropy (-ST):   -1.500283
Local:           -4.850563
--------------------------
Free energy:   -218.265536
Extrapolated:  -217.515394

Showing only first 2 kpts
 Kpt  Band  Eigenvalues  Occupancy
  0   200      1.23502    1.41782
  0   201      1.23507    1.41764
  0   202      1.32117    1.01431
  0   203      1.40210    0.62834

  1   200      1.14293    1.71896
  1   201      1.27458    1.24234
  1   202      1.27459    1.24231
  1   203      1.35835    0.83008


Fermi level: 1.32403

No gap

Forces in eV/Ang:
  0 Rh   -0.00107   -0.00062   -0.00827
  1 Rh    0.00000   -0.00078   -0.00457
  2 Rh    0.00107   -0.00062   -0.00827
  3 Rh   -0.00068    0.00039   -0.00457
  4 Rh    0.00068    0.00039   -0.00457
  5 Rh   -0.00000   -0.00041   -0.00695
  6 Rh    0.00000    0.00123   -0.00827
  7 Rh   -0.00036    0.00021   -0.00695
  8 Rh    0.00036    0.00021   -0.00695
  9 Rh   -0.00000    0.00140   -0.00048
 10 Rh    0.00184    0.00106   -0.00026
 11 Rh   -0.00184    0.00106   -0.00026
 12 Rh    0.00074   -0.00043   -0.00112
 13 Rh   -0.00000   -0.00212   -0.00026
 14 Rh   -0.00074   -0.00043   -0.00112
 15 Rh   -0.00121   -0.00070   -0.00048
 16 Rh    0.00121   -0.00070   -0.00048
 17 Rh    0.00000    0.00085   -0.00112
 18 Rh    0.00000    0.00000    0.01777
 19 Rh   -0.00053   -0.00079    0.01501
 20 Rh    0.00053   -0.00079    0.01501
 21 Rh   -0.00095   -0.00006    0.01501
 22 Rh    0.00000    0.00000    0.01135
 23 Rh    0.00095   -0.00006    0.01501
 24 Rh   -0.00042    0.00085    0.01501
 25 Rh    0.00042    0.00085    0.01501
 26 Rh    0.00000    0.00000    0.01617

System changes: positions 

Initializing position-dependent things.

Density initialized from wave functions
                                           
                                           
                                           
                                           
                                           
                Rh     Rh     Rh           
            Rh   RRh    RRh    Rh          
       Rh     Rh    Rh                     
             Rh    Rh     Rh               
        Rh     Rh   RRh    Rh    Rh        
                                           
                Rh    Rh     Rh            
           Rh    Rh     Rh                 
                                           
                                           
                                           
                                           

Positions:
   0 Rh     1.357464    0.783732    6.142902    ( 0.0000,  0.0000,  0.0000)
   1 Rh     4.072935    0.783620    6.142515    ( 0.0000,  0.0000,  0.0000)
   2 Rh     6.788406    0.783732    6.142902    ( 0.0000,  0.0000,  0.0000)
   3 Rh     2.715103    3.135455    6.142515    ( 0.0000,  0.0000,  0.0000)
   4 Rh     5.430768    3.135455    6.142515    ( 0.0000,  0.0000,  0.0000)
   5 Rh     8.145870    3.135364    6.142529    ( 0.0000,  0.0000,  0.0000)
   6 Rh     4.072935    5.487066    6.142902    ( 0.0000,  0.0000,  0.0000)
   7 Rh     6.788240    5.486849    6.142529    ( 0.0000,  0.0000,  0.0000)
   8 Rh     9.503501    5.486849    6.142529    ( 0.0000,  0.0000,  0.0000)
   9 Rh    -0.000000    1.567410    8.224041    ( 0.0000,  0.0000,  0.0000)
  10 Rh     2.714784    1.567382    8.223989    ( 0.0000,  0.0000,  0.0000)
  11 Rh     5.431086    1.567382    8.223989    ( 0.0000,  0.0000,  0.0000)
  12 Rh     1.357381    3.919336    8.223575    ( 0.0000,  0.0000,  0.0000)
  13 Rh     4.072935    3.919767    8.223989    ( 0.0000,  0.0000,  0.0000)
  14 Rh     6.788489    3.919336    8.223575    ( 0.0000,  0.0000,  0.0000)
  15 Rh     2.715518    6.270826    8.224041    ( 0.0000,  0.0000,  0.0000)
  16 Rh     5.430352    6.270826    8.224041    ( 0.0000,  0.0000,  0.0000)
  17 Rh     8.145870    6.270389    8.223575    ( 0.0000,  0.0000,  0.0000)
  18 Rh    -0.000000    0.000000   10.304940    ( 0.0000,  0.0000,  0.0000)
  19 Rh     2.715161   -0.000104   10.304946    ( 0.0000,  0.0000,  0.0000)
  20 Rh     5.430709   -0.000104   10.304946    ( 0.0000,  0.0000,  0.0000)
  21 Rh     1.357490    2.351451   10.304946    ( 0.0000,  0.0000,  0.0000)
  22 Rh     4.072935    2.351510   10.305357    ( 0.0000,  0.0000,  0.0000)
  23 Rh     6.788380    2.351451   10.304946    ( 0.0000,  0.0000,  0.0000)
  24 Rh     2.715264    4.703184   10.304946    ( 0.0000,  0.0000,  0.0000)
  25 Rh     5.430606    4.703184   10.304946    ( 0.0000,  0.0000,  0.0000)
  26 Rh     8.145870    4.703020   10.304541    ( 0.0000,  0.0000,  0.0000)

Unit cell:
           periodic     x           y           z      points  spacing
  1. axis:    yes    8.145870    0.000000    0.000000    40     0.1764
  2. axis:    yes    4.072935    7.054530    0.000000    40     0.1764
  3. axis:    no     0.000000    0.000000   16.434050    81     0.2029

  Lengths:   8.145870   8.145870  16.434050
  Angles:   90.000000  90.000000  60.000000

Effective grid spacing dv^(1/3) = 0.1939

     iter     time        total  log10-change:
                         energy  eigst   dens
iter:   1 09:59:01  -217.861731  -3.15
iter:   2 09:59:07  -219.539991  -2.57  -2.23
iter:   3 09:59:14  -217.516413  -2.99  -1.90
iter:   4 09:59:20  -217.516684  -4.36  -3.15
iter:   5 09:59:26  -217.515690c -4.95  -3.20
iter:   6 09:59:32  -217.515024c -5.29  -3.52
iter:   7 09:59:38  -217.514724c -6.02  -3.71
iter:   8 09:59:44  -217.514877c -6.21  -3.89
iter:   9 09:59:51  -217.514776c -6.39  -3.99
iter:  10 09:59:57  -217.514723c -6.56  -3.99
iter:  11 10:00:03  -217.514731c -6.95  -4.45c
iter:  12 10:00:09  -217.514735c -7.37  -4.51c
iter:  13 10:00:15  -217.514743c -7.27  -4.63c
iter:  14 10:00:22  -217.514741c -8.05c -5.02c

Converged after 14 iterations.

Dipole moment: (-0.333187, -0.192365, -0.000344) |e|*Ang

Energy contributions relative to reference atoms: (reference = -3510246.516309)

Kinetic:       -140.491291
Potential:      +73.019278
External:        +0.000000
XC:            -144.447337
Entropy (-ST):   -1.501676
Local:           -4.844554
--------------------------
Free energy:   -218.265579
Extrapolated:  -217.514741

Showing only first 2 kpts
 Kpt  Band  Eigenvalues  Occupancy
  0   200      1.23565    1.41317
  0   201      1.23580    1.41255
  0   202      1.32032    1.01610
  0   203      1.40122    0.63004

  1   200      1.14420    1.71468
  1   201      1.27378    1.24381
  1   202      1.27378    1.24378
  1   203      1.35804    0.82919


Fermi level: 1.32354

No gap

Forces in eV/Ang:
  0 Rh    0.00158    0.00091    0.00304
  1 Rh    0.00000    0.00328    0.01040
  2 Rh   -0.00158    0.00091    0.00304
  3 Rh    0.00284   -0.00164    0.01040
  4 Rh   -0.00284   -0.00164    0.01040
  5 Rh    0.00000   -0.00149    0.00687
  6 Rh    0.00000   -0.00182    0.00304
  7 Rh   -0.00129    0.00075    0.00687
  8 Rh    0.00129    0.00075    0.00687
  9 Rh    0.00000    0.00503   -0.00236
 10 Rh    0.00948    0.00547   -0.00182
 11 Rh   -0.00948    0.00547   -0.00182
 12 Rh    0.00496   -0.00287    0.00243
 13 Rh    0.00000   -0.01095   -0.00182
 14 Rh   -0.00496   -0.00287    0.00243
 15 Rh   -0.00435   -0.00251   -0.00236
 16 Rh    0.00435   -0.00251   -0.00236
 17 Rh   -0.00000    0.00573    0.00243
 18 Rh    0.00000    0.00000   -0.00059
 19 Rh    0.00242    0.00045   -0.00402
 20 Rh   -0.00242    0.00045   -0.00402
 21 Rh    0.00159    0.00187   -0.00402
 22 Rh    0.00000   -0.00000   -0.01203
 23 Rh   -0.00159    0.00187   -0.00402
 24 Rh   -0.00082   -0.00232   -0.00402
 25 Rh    0.00082   -0.00232   -0.00402
 26 Rh   -0.00000    0.00000    0.00046

System changes: positions 

Initializing position-dependent things.

Density initialized from wave functions
                                           
                                           
                                           
                                           
                                           
                Rh     Rh     Rh           
            Rh   RRh    RRh    Rh          
       Rh     Rh    Rh                     
             Rh    Rh     Rh               
        Rh     Rh   RRh    Rh    Rh        
                                           
                Rh    Rh     Rh            
           Rh    Rh     Rh                 
                                           
                                           
                                           
                                           

Positions:
   0 Rh     1.357613    0.783818    6.142950    ( 0.0000,  0.0000,  0.0000)
   1 Rh     4.072935    0.783877    6.142859    ( 0.0000,  0.0000,  0.0000)
   2 Rh     6.788257    0.783818    6.142950    ( 0.0000,  0.0000,  0.0000)
   3 Rh     2.715325    3.135327    6.142859    ( 0.0000,  0.0000,  0.0000)
   4 Rh     5.430545    3.135327    6.142859    ( 0.0000,  0.0000,  0.0000)
   5 Rh     8.145870    3.135273    6.142772    ( 0.0000,  0.0000,  0.0000)
   6 Rh     4.072935    5.486894    6.142950    ( 0.0000,  0.0000,  0.0000)
   7 Rh     6.788161    5.486894    6.142772    ( 0.0000,  0.0000,  0.0000)
   8 Rh     9.503579    5.486894    6.142772    ( 0.0000,  0.0000,  0.0000)
   9 Rh    -0.000000    1.567649    8.223781    ( 0.0000,  0.0000,  0.0000)
  10 Rh     2.715296    1.567677    8.223754    ( 0.0000,  0.0000,  0.0000)
  11 Rh     5.430574    1.567677    8.223754    ( 0.0000,  0.0000,  0.0000)
  12 Rh     1.357665    3.919172    8.223715    ( 0.0000,  0.0000,  0.0000)
  13 Rh     4.072935    3.919177    8.223754    ( 0.0000,  0.0000,  0.0000)
  14 Rh     6.788205    3.919172    8.223715    ( 0.0000,  0.0000,  0.0000)
  15 Rh     2.715311    6.270706    8.223781    ( 0.0000,  0.0000,  0.0000)
  16 Rh     5.430559    6.270706    8.223781    ( 0.0000,  0.0000,  0.0000)
  17 Rh     8.145870    6.270717    8.223715    ( 0.0000,  0.0000,  0.0000)
  18 Rh    -0.000000    0.000000   10.304448    ( 0.0000,  0.0000,  0.0000)
  19 Rh     2.715343   -0.000047   10.304397    ( 0.0000,  0.0000,  0.0000)
  20 Rh     5.430527   -0.000047   10.304397    ( 0.0000,  0.0000,  0.0000)
  21 Rh     1.357631    2.351580   10.304397    ( 0.0000,  0.0000,  0.0000)
  22 Rh     4.072935    2.351510   10.304461    ( 0.0000,  0.0000,  0.0000)
  23 Rh     6.788240    2.351580   10.304397    ( 0.0000,  0.0000,  0.0000)
  24 Rh     2.715223    4.702998   10.304397    ( 0.0000,  0.0000,  0.0000)
  25 Rh     5.430648    4.702998   10.304397    ( 0.0000,  0.0000,  0.0000)
  26 Rh     8.145870    4.703020   10.304253    ( 0.0000,  0.0000,  0.0000)

Unit cell:
           periodic     x           y           z      points  spacing
  1. axis:    yes    8.145870    0.000000    0.000000    40     0.1764
  2. axis:    yes    4.072935    7.054530    0.000000    40     0.1764
  3. axis:    no     0.000000    0.000000   16.434050    81     0.2029

  Lengths:   8.145870   8.145870  16.434050
  Angles:   90.000000  90.000000  60.000000

Effective grid spacing dv^(1/3) = 0.1939

     iter     time        total  log10-change:
                         energy  eigst   dens
iter:   1 10:00:30  -217.515284  -5.00
iter:   2 10:00:36  -217.515166  -5.36  -3.49
iter:   3 10:00:42  -217.515057c -6.74  -4.05c
iter:   4 10:00:48  -217.515024c -7.22  -4.26c
iter:   5 10:00:55  -217.514995c -6.61  -4.36c
iter:   6 10:01:01  -217.514992c -7.54c -4.55c

Converged after 6 iterations.

Dipole moment: (-0.327867, -0.189294, 0.000313) |e|*Ang

Energy contributions relative to reference atoms: (reference = -3510246.516309)

Kinetic:       -140.439808
Potential:      +73.010957
External:        +0.000000
XC:            -144.483381
Entropy (-ST):   -1.501244
Local:           -4.852138
--------------------------
Free energy:   -218.265614
Extrapolated:  -217.514992

Showing only first 2 kpts
 Kpt  Band  Eigenvalues  Occupancy
  0   200      1.23535    1.41458
  0   201      1.23540    1.41440
  0   202      1.32046    1.01560
  0   203      1.40136    0.62956

  1   200      1.14364    1.71615
  1   201      1.27390    1.24339
  1   202      1.27391    1.24336
  1   203      1.35815    0.82885


Fermi level: 1.32358

No gap

Forces in eV/Ang:
  0 Rh    0.00023    0.00013   -0.00479
  1 Rh   -0.00000   -0.00029   -0.00167
  2 Rh   -0.00023    0.00013   -0.00479
  3 Rh   -0.00025    0.00014   -0.00167
  4 Rh    0.00025    0.00014   -0.00167
  5 Rh    0.00000    0.00050   -0.00358
  6 Rh    0.00000   -0.00027   -0.00479
  7 Rh    0.00043   -0.00025   -0.00358
  8 Rh   -0.00043   -0.00025   -0.00358
  9 Rh    0.00000    0.00070   -0.00066
 10 Rh    0.00012    0.00007   -0.00070
 11 Rh   -0.00012    0.00007   -0.00070
 12 Rh   -0.00023    0.00013   -0.00357
 13 Rh   -0.00000   -0.00014   -0.00070
 14 Rh    0.00023    0.00013   -0.00357
 15 Rh   -0.00061   -0.00035   -0.00066
 16 Rh    0.00061   -0.00035   -0.00066
 17 Rh    0.00000   -0.00027   -0.00357
 18 Rh    0.00000    0.00000    0.01074
 19 Rh   -0.00034    0.00037    0.00814
 20 Rh    0.00034    0.00037    0.00814
 21 Rh    0.00015   -0.00048    0.00814
 22 Rh    0.00000    0.00000    0.00489
 23 Rh   -0.00015   -0.00048    0.00814
 24 Rh    0.00049    0.00011    0.00814
 25 Rh   -0.00049    0.00011    0.00814
 26 Rh    0.00000    0.00000    0.00915

System changes: positions 

Initializing position-dependent things.

Density initialized from wave functions
                                           
                                           
                                           
                                           
                                           
                Rh     Rh     Rh           
            Rh   RRh    RRh    Rh          
       Rh     Rh    Rh                     
             Rh    Rh     Rh               
        Rh     Rh   RRh    Rh    Rh        
                                           
                Rh    Rh     Rh            
           Rh    Rh     Rh                 
                                           
                                           
                                           
                                           

Positions:
   0 Rh     1.357531    0.783771    6.143027    ( 0.0000,  0.0000,  0.0000)
   1 Rh     4.072935    0.783893    6.143605    ( 0.0000,  0.0000,  0.0000)
   2 Rh     6.788339    0.783771    6.143027    ( 0.0000,  0.0000,  0.0000)
   3 Rh     2.715339    3.135319    6.143605    ( 0.0000,  0.0000,  0.0000)
   4 Rh     5.430532    3.135319    6.143605    ( 0.0000,  0.0000,  0.0000)
   5 Rh     8.145870    3.135149    6.142974    ( 0.0000,  0.0000,  0.0000)
   6 Rh     4.072935    5.486988    6.143027    ( 0.0000,  0.0000,  0.0000)
   7 Rh     6.788054    5.486956    6.142974    ( 0.0000,  0.0000,  0.0000)
   8 Rh     9.503686    5.486956    6.142974    ( 0.0000,  0.0000,  0.0000)
   9 Rh    -0.000000    1.567553    8.224344    ( 0.0000,  0.0000,  0.0000)
  10 Rh     2.715120    1.567576    8.224270    ( 0.0000,  0.0000,  0.0000)
  11 Rh     5.430750    1.567576    8.224270    ( 0.0000,  0.0000,  0.0000)
  12 Rh     1.357582    3.919220    8.224215    ( 0.0000,  0.0000,  0.0000)
  13 Rh     4.072935    3.919379    8.224270    ( 0.0000,  0.0000,  0.0000)
  14 Rh     6.788288    3.919220    8.224215    ( 0.0000,  0.0000,  0.0000)
  15 Rh     2.715394    6.270754    8.224344    ( 0.0000,  0.0000,  0.0000)
  16 Rh     5.430476    6.270754    8.224344    ( 0.0000,  0.0000,  0.0000)
  17 Rh     8.145870    6.270621    8.224215    ( 0.0000,  0.0000,  0.0000)
  18 Rh    -0.000000    0.000000   10.305830    ( 0.0000,  0.0000,  0.0000)
  19 Rh     2.715370   -0.000188   10.305366    ( 0.0000,  0.0000,  0.0000)
  20 Rh     5.430500   -0.000188   10.305366    ( 0.0000,  0.0000,  0.0000)
  21 Rh     1.357523    2.351674   10.305366    ( 0.0000,  0.0000,  0.0000)
  22 Rh     4.072935    2.351510   10.304609    ( 0.0000,  0.0000,  0.0000)
  23 Rh     6.788348    2.351674   10.305366    ( 0.0000,  0.0000,  0.0000)
  24 Rh     2.715087    4.703045   10.305366    ( 0.0000,  0.0000,  0.0000)
  25 Rh     5.430783    4.703045   10.305366    ( 0.0000,  0.0000,  0.0000)
  26 Rh     8.145870    4.703020   10.305551    ( 0.0000,  0.0000,  0.0000)

Unit cell:
           periodic     x           y           z      points  spacing
  1. axis:    yes    8.145870    0.000000    0.000000    40     0.1764
  2. axis:    yes    4.072935    7.054530    0.000000    40     0.1764
  3. axis:    no     0.000000    0.000000   16.434050    81     0.2029

  Lengths:   8.145870   8.145870  16.434050
  Angles:   90.000000  90.000000  60.000000

Effective grid spacing dv^(1/3) = 0.1939

     iter     time        total  log10-change:
                         energy  eigst   dens
iter:   1 10:01:09  -217.533270  -4.52
iter:   2 10:01:15  -217.619754  -3.88  -2.89
iter:   3 10:01:21  -217.514735c -4.29  -2.54
iter:   4 10:01:28  -217.514836c -5.71  -3.92
iter:   5 10:01:34  -217.514819c -6.43  -3.98
iter:   6 10:01:40  -217.514801c -6.88  -4.44c
iter:   7 10:01:46  -217.514791c -7.49c -4.60c

Converged after 7 iterations.

Dipole moment: (-0.311079, -0.179602, -0.001180) |e|*Ang

Energy contributions relative to reference atoms: (reference = -3510246.516309)

Kinetic:       -140.076756
Potential:      +72.636165
External:        +0.000000
XC:            -144.483017
Entropy (-ST):   -1.501617
Local:           -4.840374
--------------------------
Free energy:   -218.265599
Extrapolated:  -217.514791

Showing only first 2 kpts
 Kpt  Band  Eigenvalues  Occupancy
  0   200      1.23554    1.41304
  0   201      1.23562    1.41267
  0   202      1.32014    1.01622
  0   203      1.40103    0.63018

  1   200      1.14402    1.71475
  1   201      1.27358    1.24401
  1   202      1.27359    1.24396
  1   203      1.35786    0.82931


Fermi level: 1.32339

No gap

Forces in eV/Ang:
  0 Rh    0.00068    0.00039    0.00096
  1 Rh   -0.00000   -0.00154   -0.00700
  2 Rh   -0.00068    0.00039    0.00096
  3 Rh   -0.00134    0.00077   -0.00700
  4 Rh    0.00134    0.00077   -0.00700
  5 Rh   -0.00000    0.00237    0.00178
  6 Rh    0.00000   -0.00079    0.00096
  7 Rh    0.00206   -0.00119    0.00178
  8 Rh   -0.00206   -0.00119    0.00178
  9 Rh   -0.00000    0.00087   -0.00663
 10 Rh    0.00003    0.00002   -0.00539
 11 Rh   -0.00003    0.00002   -0.00539
 12 Rh   -0.00058    0.00033   -0.00558
 13 Rh    0.00000   -0.00003   -0.00539
 14 Rh    0.00058    0.00033   -0.00558
 15 Rh   -0.00076   -0.00044   -0.00663
 16 Rh    0.00076   -0.00044   -0.00663
 17 Rh    0.00000   -0.00067   -0.00558
 18 Rh    0.00000    0.00000   -0.01890
 19 Rh   -0.00148    0.00180   -0.01274
 20 Rh    0.00148    0.00180   -0.01274
 21 Rh    0.00082   -0.00218   -0.01274
 22 Rh    0.00000   -0.00000   -0.00254
 23 Rh   -0.00082   -0.00218   -0.01274
 24 Rh    0.00230    0.00038   -0.01274
 25 Rh   -0.00230    0.00038   -0.01274
 26 Rh    0.00000    0.00000   -0.01547

System changes: positions 

Initializing position-dependent things.

Density initialized from wave functions
                                           
                                           
                                           
                                           
                                           
                Rh     Rh     Rh           
            Rh   RRh    RRh    Rh          
       Rh     Rh    Rh                     
             Rh    Rh     Rh               
        Rh     Rh   RRh    Rh    Rh        
                                           
                Rh    Rh     Rh            
           Rh    Rh     Rh                 
                                           
                                           
                                           
                                           

Positions:
   0 Rh     1.357561    0.783788    6.142234    ( 0.0000,  0.0000,  0.0000)
   1 Rh     4.072935    0.783795    6.142370    ( 0.0000,  0.0000,  0.0000)
   2 Rh     6.788309    0.783788    6.142234    ( 0.0000,  0.0000,  0.0000)
   3 Rh     2.715254    3.135368    6.142370    ( 0.0000,  0.0000,  0.0000)
   4 Rh     5.430616    3.135368    6.142370    ( 0.0000,  0.0000,  0.0000)
   5 Rh     8.145870    3.135291    6.142219    ( 0.0000,  0.0000,  0.0000)
   6 Rh     4.072935    5.486954    6.142234    ( 0.0000,  0.0000,  0.0000)
   7 Rh     6.788176    5.486885    6.142219    ( 0.0000,  0.0000,  0.0000)
   8 Rh     9.503564    5.486885    6.142219    ( 0.0000,  0.0000,  0.0000)
   9 Rh    -0.000000    1.567691    8.223116    ( 0.0000,  0.0000,  0.0000)
  10 Rh     2.715277    1.567666    8.223119    ( 0.0000,  0.0000,  0.0000)
  11 Rh     5.430593    1.567666    8.223119    ( 0.0000,  0.0000,  0.0000)
  12 Rh     1.357626    3.919194    8.223013    ( 0.0000,  0.0000,  0.0000)
  13 Rh     4.072935    3.919199    8.223119    ( 0.0000,  0.0000,  0.0000)
  14 Rh     6.788244    3.919194    8.223013    ( 0.0000,  0.0000,  0.0000)
  15 Rh     2.715275    6.270685    8.223116    ( 0.0000,  0.0000,  0.0000)
  16 Rh     5.430595    6.270685    8.223116    ( 0.0000,  0.0000,  0.0000)
  17 Rh     8.145870    6.270672    8.223013    ( 0.0000,  0.0000,  0.0000)
  18 Rh    -0.000000    0.000000   10.304004    ( 0.0000,  0.0000,  0.0000)
  19 Rh     2.715279   -0.000077   10.303841    ( 0.0000,  0.0000,  0.0000)
  20 Rh     5.430591   -0.000077   10.303841    ( 0.0000,  0.0000,  0.0000)
  21 Rh     1.357573    2.351539   10.303841    ( 0.0000,  0.0000,  0.0000)
  22 Rh     4.072935    2.351510   10.303684    ( 0.0000,  0.0000,  0.0000)
  23 Rh     6.788297    2.351539   10.303841    ( 0.0000,  0.0000,  0.0000)
  24 Rh     2.715229    4.703068   10.303841    ( 0.0000,  0.0000,  0.0000)
  25 Rh     5.430641    4.703068   10.303841    ( 0.0000,  0.0000,  0.0000)
  26 Rh     8.145870    4.703020   10.303828    ( 0.0000,  0.0000,  0.0000)

Unit cell:
           periodic     x           y           z      points  spacing
  1. axis:    yes    8.145870    0.000000    0.000000    40     0.1764
  2. axis:    yes    4.072935    7.054530    0.000000    40     0.1764
  3. axis:    no     0.000000    0.000000   16.434050    81     0.2029

  Lengths:   8.145870   8.145870  16.434050
  Angles:   90.000000  90.000000  60.000000

Effective grid spacing dv^(1/3) = 0.1939

     iter     time        total  log10-change:
                         energy  eigst   dens
iter:   1 10:01:54  -217.553740  -4.14
iter:   2 10:02:01  -217.751790  -3.53  -2.71
iter:   3 10:02:07  -217.515074  -3.93  -2.36
iter:   4 10:02:13  -217.515283  -5.29  -3.66
iter:   5 10:02:19  -217.515009c -6.21  -3.71
iter:   6 10:02:25  -217.514957c -6.23  -4.03c
iter:   7 10:02:32  -217.514991c -7.10  -4.40c
iter:   8 10:02:38  -217.515000c -6.76  -4.40c
iter:   9 10:02:44  -217.514993c -7.48c -4.34c

Converged after 9 iterations.

Dipole moment: (-0.329646, -0.190321, -0.000776) |e|*Ang

Energy contributions relative to reference atoms: (reference = -3510246.516309)

Kinetic:       -140.046675
Potential:      +72.642251
External:        +0.000000
XC:            -144.512044
Entropy (-ST):   -1.501248
Local:           -4.847902
--------------------------
Free energy:   -218.265617
Extrapolated:  -217.514993

Showing only first 2 kpts
 Kpt  Band  Eigenvalues  Occupancy
  0   200      1.23543    1.41442
  0   201      1.23547    1.41424
  0   202      1.32048    1.01566
  0   203      1.40139    0.62963

  1   200      1.14373    1.71600
  1   201      1.27392    1.24348
  1   202      1.27393    1.24345
  1   203      1.35813    0.82912


Fermi level: 1.32361

No gap

Forces in eV/Ang:
  0 Rh   -0.00086   -0.00049    0.01166
  1 Rh    0.00000    0.00073    0.01208
  2 Rh    0.00086   -0.00049    0.01166
  3 Rh    0.00063   -0.00037    0.01208
  4 Rh   -0.00063   -0.00037    0.01208
  5 Rh   -0.00000   -0.00173    0.01058
  6 Rh    0.00000    0.00099    0.01166
  7 Rh   -0.00150    0.00086    0.01058
  8 Rh    0.00150    0.00086    0.01058
  9 Rh    0.00000   -0.00143    0.00540
 10 Rh   -0.00045   -0.00026    0.00460
 11 Rh    0.00045   -0.00026    0.00460
 12 Rh    0.00049   -0.00028    0.00785
 13 Rh    0.00000    0.00052    0.00460
 14 Rh   -0.00049   -0.00028    0.00785
 15 Rh    0.00124    0.00071    0.00540
 16 Rh   -0.00124    0.00071    0.00540
 17 Rh    0.00000    0.00057    0.00785
 18 Rh    0.00000   -0.00000    0.02039
 19 Rh    0.00064   -0.00204    0.02109
 20 Rh   -0.00064   -0.00204    0.02109
 21 Rh   -0.00145    0.00157    0.02109
 22 Rh    0.00000    0.00000    0.02000
 23 Rh    0.00145    0.00157    0.02109
 24 Rh   -0.00209    0.00047    0.02109
 25 Rh    0.00209    0.00047    0.02109
 26 Rh    0.00000    0.00000    0.02258

System changes: positions 

Initializing position-dependent things.

Density initialized from wave functions
                                           
                                           
                                           
                                           
                                           
                Rh     Rh     Rh           
            Rh   RRh    RRh    Rh          
       Rh     Rh    Rh                     
             Rh    Rh     Rh               
        Rh     Rh   RRh    Rh    Rh        
                                           
                Rh    Rh     Rh            
           Rh    Rh     Rh                 
                                           
                                           
                                           
                                           

Positions:
   0 Rh     1.357627    0.783826    6.142885    ( 0.0000,  0.0000,  0.0000)
   1 Rh     4.072935    0.783838    6.142919    ( 0.0000,  0.0000,  0.0000)
   2 Rh     6.788243    0.783826    6.142885    ( 0.0000,  0.0000,  0.0000)
   3 Rh     2.715291    3.135346    6.142919    ( 0.0000,  0.0000,  0.0000)
   4 Rh     5.430579    3.135346    6.142919    ( 0.0000,  0.0000,  0.0000)
   5 Rh     8.145870    3.135317    6.142934    ( 0.0000,  0.0000,  0.0000)
   6 Rh     4.072935    5.486878    6.142885    ( 0.0000,  0.0000,  0.0000)
   7 Rh     6.788199    5.486872    6.142934    ( 0.0000,  0.0000,  0.0000)
   8 Rh     9.503541    5.486872    6.142934    ( 0.0000,  0.0000,  0.0000)
   9 Rh    -0.000000    1.567689    8.223843    ( 0.0000,  0.0000,  0.0000)
  10 Rh     2.715286    1.567671    8.223839    ( 0.0000,  0.0000,  0.0000)
  11 Rh     5.430584    1.567671    8.223839    ( 0.0000,  0.0000,  0.0000)
  12 Rh     1.357640    3.919187    8.223791    ( 0.0000,  0.0000,  0.0000)
  13 Rh     4.072935    3.919189    8.223839    ( 0.0000,  0.0000,  0.0000)
  14 Rh     6.788230    3.919187    8.223791    ( 0.0000,  0.0000,  0.0000)
  15 Rh     2.715277    6.270686    8.223843    ( 0.0000,  0.0000,  0.0000)
  16 Rh     5.430593    6.270686    8.223843    ( 0.0000,  0.0000,  0.0000)
  17 Rh     8.145870    6.270688    8.223791    ( 0.0000,  0.0000,  0.0000)
  18 Rh    -0.000000    0.000000   10.304835    ( 0.0000,  0.0000,  0.0000)
  19 Rh     2.715289   -0.000062   10.304835    ( 0.0000,  0.0000,  0.0000)
  20 Rh     5.430581   -0.000062   10.304835    ( 0.0000,  0.0000,  0.0000)
  21 Rh     1.357591    2.351541   10.304835    ( 0.0000,  0.0000,  0.0000)
  22 Rh     4.072935    2.351510   10.304803    ( 0.0000,  0.0000,  0.0000)
  23 Rh     6.788279    2.351541   10.304835    ( 0.0000,  0.0000,  0.0000)
  24 Rh     2.715237    4.703052   10.304835    ( 0.0000,  0.0000,  0.0000)
  25 Rh     5.430633    4.703052   10.304835    ( 0.0000,  0.0000,  0.0000)
  26 Rh     8.145870    4.703020   10.304911    ( 0.0000,  0.0000,  0.0000)

Unit cell:
           periodic     x           y           z      points  spacing
  1. axis:    yes    8.145870    0.000000    0.000000    40     0.1764
  2. axis:    yes    4.072935    7.054530    0.000000    40     0.1764
  3. axis:    no     0.000000    0.000000   16.434050    81     0.2029

  Lengths:   8.145870   8.145870  16.434050
  Angles:   90.000000  90.000000  60.000000

Effective grid spacing dv^(1/3) = 0.1939

     iter     time        total  log10-change:
                         energy  eigst   dens
iter:   1 10:02:52  -217.516322  -4.91
iter:   2 10:02:58  -217.520010  -5.09  -3.47
iter:   3 10:03:05  -217.514900c -5.50  -3.21
iter:   4 10:03:11  -217.514885c -6.74  -3.98
iter:   5 10:03:17  -217.514878c -7.03  -4.12c
iter:   6 10:03:23  -217.514872c -7.05  -4.33c
iter:   7 10:03:29  -217.514871c -7.84c -4.61c

Converged after 7 iterations.

Dipole moment: (-0.328311, -0.189550, -0.001103) |e|*Ang

Energy contributions relative to reference atoms: (reference = -3510246.516309)

Kinetic:       -140.200412
Potential:      +72.763469
External:        +0.000000
XC:            -144.484232
Entropy (-ST):   -1.501482
Local:           -4.842956
--------------------------
Free energy:   -218.265613
Extrapolated:  -217.514871

Showing only first 2 kpts
 Kpt  Band  Eigenvalues  Occupancy
  0   200      1.23549    1.41354
  0   201      1.23553    1.41339
  0   202      1.32027    1.01598
  0   203      1.40117    0.62992

  1   200      1.14389    1.71526
  1   201      1.27372    1.24376
  1   202      1.27372    1.24373
  1   203      1.35795    0.82927


Fermi level: 1.32347

No gap

Forces in eV/Ang:
  0 Rh   -0.00002   -0.00001   -0.00581
  1 Rh   -0.00000   -0.00012   -0.00621
  2 Rh    0.00002   -0.00001   -0.00581
  3 Rh   -0.00010    0.00006   -0.00621
  4 Rh    0.00010    0.00006   -0.00621
  5 Rh    0.00000    0.00025   -0.00675
  6 Rh    0.00000    0.00002   -0.00581
  7 Rh    0.00022   -0.00012   -0.00675
  8 Rh   -0.00022   -0.00012   -0.00675
  9 Rh    0.00000   -0.00038   -0.00609
 10 Rh   -0.00031   -0.00018   -0.00580
 11 Rh    0.00031   -0.00018   -0.00580
 12 Rh   -0.00022    0.00013   -0.00580
 13 Rh    0.00000    0.00036   -0.00580
 14 Rh    0.00022    0.00013   -0.00580
 15 Rh    0.00033    0.00019   -0.00609
 16 Rh   -0.00033    0.00019   -0.00609
 17 Rh    0.00000   -0.00026   -0.00580
 18 Rh   -0.00000   -0.00000   -0.01379
 19 Rh    0.00008    0.00067   -0.01382
 20 Rh   -0.00008    0.00067   -0.01382
 21 Rh    0.00062   -0.00027   -0.01382
 22 Rh    0.00000    0.00000   -0.01338
 23 Rh   -0.00062   -0.00027   -0.01382
 24 Rh    0.00054   -0.00040   -0.01382
 25 Rh   -0.00054   -0.00040   -0.01382
 26 Rh    0.00000    0.00000   -0.01489

System changes: positions 

Initializing position-dependent things.

Density initialized from wave functions
                                           
                                           
                                           
                                           
                                           
                Rh     Rh     Rh           
            Rh   RRh    RRh    Rh          
       Rh     Rh    Rh                     
             Rh    Rh     Rh               
        Rh     Rh   RRh    Rh    Rh        
                                           
                Rh    Rh     Rh            
           Rh    Rh     Rh                 
                                           
                                           
                                           
                                           

Positions:
   0 Rh     1.357506    0.783757    6.142714    ( 0.0000,  0.0000,  0.0000)
   1 Rh     4.072935    0.783830    6.142687    ( 0.0000,  0.0000,  0.0000)
   2 Rh     6.788364    0.783757    6.142714    ( 0.0000,  0.0000,  0.0000)
   3 Rh     2.715284    3.135350    6.142687    ( 0.0000,  0.0000,  0.0000)
   4 Rh     5.430586    3.135350    6.142687    ( 0.0000,  0.0000,  0.0000)
   5 Rh     8.145870    3.135194    6.142490    ( 0.0000,  0.0000,  0.0000)
   6 Rh     4.072935    5.487017    6.142714    ( 0.0000,  0.0000,  0.0000)
   7 Rh     6.788093    5.486933    6.142490    ( 0.0000,  0.0000,  0.0000)
   8 Rh     9.503647    5.486933    6.142490    ( 0.0000,  0.0000,  0.0000)
   9 Rh    -0.000000    1.567631    8.223557    ( 0.0000,  0.0000,  0.0000)
  10 Rh     2.715288    1.567672    8.223474    ( 0.0000,  0.0000,  0.0000)
  11 Rh     5.430582    1.567672    8.223474    ( 0.0000,  0.0000,  0.0000)
  12 Rh     1.357685    3.919160    8.223419    ( 0.0000,  0.0000,  0.0000)
  13 Rh     4.072935    3.919186    8.223474    ( 0.0000,  0.0000,  0.0000)
  14 Rh     6.788185    3.919160    8.223419    ( 0.0000,  0.0000,  0.0000)
  15 Rh     2.715327    6.270715    8.223557    ( 0.0000,  0.0000,  0.0000)
  16 Rh     5.430543    6.270715    8.223557    ( 0.0000,  0.0000,  0.0000)
  17 Rh     8.145870    6.270740    8.223419    ( 0.0000,  0.0000,  0.0000)
  18 Rh    -0.000000    0.000000   10.304492    ( 0.0000,  0.0000,  0.0000)
  19 Rh     2.715315   -0.000205   10.304349    ( 0.0000,  0.0000,  0.0000)
  20 Rh     5.430555   -0.000205   10.304349    ( 0.0000,  0.0000,  0.0000)
  21 Rh     1.357480    2.351635   10.304349    ( 0.0000,  0.0000,  0.0000)
  22 Rh     4.072935    2.351510   10.304336    ( 0.0000,  0.0000,  0.0000)
  23 Rh     6.788390    2.351635   10.304349    ( 0.0000,  0.0000,  0.0000)
  24 Rh     2.715100    4.703101   10.304349    ( 0.0000,  0.0000,  0.0000)
  25 Rh     5.430770    4.703101   10.304349    ( 0.0000,  0.0000,  0.0000)
  26 Rh     8.145870    4.703020   10.304227    ( 0.0000,  0.0000,  0.0000)

Unit cell:
           periodic     x           y           z      points  spacing
  1. axis:    yes    8.145870    0.000000    0.000000    40     0.1764
  2. axis:    yes    4.072935    7.054530    0.000000    40     0.1764
  3. axis:    no     0.000000    0.000000   16.434050    81     0.2029

  Lengths:   8.145870   8.145870  16.434050
  Angles:   90.000000  90.000000  60.000000

Effective grid spacing dv^(1/3) = 0.1939

     iter     time        total  log10-change:
                         energy  eigst   dens
iter:   1 10:03:38  -217.521841  -4.98
iter:   2 10:03:44  -217.558258  -4.27  -3.09
iter:   3 10:03:50  -217.514932c -4.68  -2.73
iter:   4 10:03:56  -217.514963c -6.08  -4.20c
iter:   5 10:04:02  -217.514944c -7.07  -4.23c
iter:   6 10:04:09  -217.514935c -7.23  -4.58c
iter:   7 10:04:15  -217.514937c -8.01c -4.86c

Converged after 7 iterations.

Dipole moment: (-0.308834, -0.178305, 0.000425) |e|*Ang

Energy contributions relative to reference atoms: (reference = -3510246.516309)

Kinetic:       -140.295815
Potential:      +72.865674
External:        +0.000000
XC:            -144.486560
Entropy (-ST):   -1.501348
Local:           -4.847562
--------------------------
Free energy:   -218.265612
Extrapolated:  -217.514937

Showing only first 2 kpts
 Kpt  Band  Eigenvalues  Occupancy
  0   200      1.23546    1.41411
  0   201      1.23550    1.41397
  0   202      1.32042    1.01576
  0   203      1.40133    0.62970

  1   200      1.14380    1.71574
  1   201      1.27387    1.24354
  1   202      1.27387    1.24351
  1   203      1.35808    0.82914


Fermi level: 1.32357

No gap

Forces in eV/Ang:
  0 Rh    0.00120    0.00069    0.00447
  1 Rh    0.00000    0.00007    0.00376
  2 Rh   -0.00120    0.00069    0.00447
  3 Rh    0.00006   -0.00004    0.00376
  4 Rh   -0.00006   -0.00004    0.00376
  5 Rh    0.00000    0.00132    0.00589
  6 Rh    0.00000   -0.00138    0.00447
  7 Rh    0.00114   -0.00066    0.00589
  8 Rh   -0.00114   -0.00066    0.00589
  9 Rh   -0.00000    0.00055    0.00394
 10 Rh   -0.00009   -0.00005    0.00577
 11 Rh    0.00009   -0.00005    0.00577
 12 Rh   -0.00073    0.00042    0.00631
 13 Rh    0.00000    0.00010    0.00577
 14 Rh    0.00073    0.00042    0.00631
 15 Rh   -0.00047   -0.00027    0.00394
 16 Rh    0.00047   -0.00027    0.00394
 17 Rh   -0.00000   -0.00084    0.00631
 18 Rh   -0.00000    0.00000    0.00527
 19 Rh   -0.00019    0.00188    0.00658
 20 Rh    0.00019    0.00188    0.00658
 21 Rh    0.00154   -0.00110    0.00658
 22 Rh    0.00000    0.00000    0.00730
 23 Rh   -0.00154   -0.00110    0.00658
 24 Rh    0.00173   -0.00078    0.00658
 25 Rh   -0.00173   -0.00078    0.00658
 26 Rh   -0.00000    0.00000    0.00687

Writing to Assignment 4/output_T3/Rh_111-surface_relaxed.gpaw (mode='')

Timing:                                      incl.     excl.
-------------------------------------------------------------------
Density initialized from wave functions:     5.268     4.639   0.4% |
 Symmetrize density:                         0.629     0.629   0.1% |
Forces:                                     16.301    16.301   1.5% ||
Hamiltonian:                                 2.161     0.040   0.0% |
 Atomic:                                     0.331     0.008   0.0% |
  XC Correction:                             0.323     0.323   0.0% |
 Calculate atomic Hamiltonians:              0.914     0.914   0.1% |
 Communicate:                                0.388     0.388   0.0% |
 Initialize Hamiltonian:                     0.000     0.000   0.0% |
 Poisson:                                    0.010     0.010   0.0% |
 XC 3D grid:                                 0.478     0.478   0.0% |
LCAO initialization:                        15.016     0.091   0.0% |
 LCAO eigensolver:                           1.393     0.001   0.0% |
  Calculate projections:                     0.000     0.000   0.0% |
  DenseAtomicCorrection:                     0.000     0.000   0.0% |
  Distribute overlap matrix:                 1.113     1.113   0.1% |
  Orbital Layouts:                           0.211     0.211   0.0% |
  Potential matrix:                          0.048     0.048   0.0% |
  Sum over cells:                            0.019     0.019   0.0% |
 LCAO to grid:                              13.042    13.042   1.2% |
 Set positions (LCAO WFS):                   0.490     0.412   0.0% |
  Basic WFS set positions:                   0.004     0.004   0.0% |
  Basis functions set positions:             0.000     0.000   0.0% |
  P tci:                                     0.001     0.001   0.0% |
  ST tci:                                    0.042     0.042   0.0% |
  mktci:                                     0.031     0.031   0.0% |
PWDescriptor:                                0.379     0.379   0.0% |
Redistribute:                                0.011     0.011   0.0% |
SCF-cycle:                                1055.305     0.875   0.1% |
 Davidson:                                 961.919   152.401  13.8% |-----|
  Apply H:                                  83.079    80.460   7.3% |--|
   HMM T:                                    2.619     2.619   0.2% |
  Subspace diag:                           148.060     0.067   0.0% |
   calc_h_matrix:                          101.080    18.831   1.7% ||
    Apply H:                                82.249    79.630   7.2% |--|
     HMM T:                                  2.619     2.619   0.2% |
   diagonalize:                             16.907    16.907   1.5% ||
   rotate_psi:                              30.005    30.005   2.7% ||
  calc. matrices:                          289.484   124.885  11.3% |----|
   Apply H:                                164.599   159.437  14.5% |-----|
    HMM T:                                   5.162     5.162   0.5% |
  diagonalize:                             228.634   228.634  20.7% |-------|
  rotate_psi:                               60.261    60.261   5.5% |-|
 Density:                                   63.466     0.004   0.0% |
  Atomic density matrices:                   0.874     0.874   0.1% |
  Mix:                                      14.063    14.063   1.3% ||
  Multipole moments:                         0.044     0.044   0.0% |
  Pseudo density:                           48.481    40.895   3.7% ||
   Symmetrize density:                       7.586     7.586   0.7% |
 Hamiltonian:                               23.876     0.441   0.0% |
  Atomic:                                    3.721     0.093   0.0% |
   XC Correction:                            3.629     3.629   0.3% |
  Calculate atomic Hamiltonians:            10.382    10.382   0.9% |
  Communicate:                               3.884     3.884   0.4% |
  Poisson:                                   0.131     0.131   0.0% |
  XC 3D grid:                                5.317     5.317   0.5% |
 Orthonormalize:                             5.170     0.008   0.0% |
  calc_s_matrix:                             0.717     0.717   0.1% |
  inverse-cholesky:                          0.590     0.590   0.1% |
  projections:                               2.584     2.584   0.2% |
  rotate_psi_s:                              1.272     1.272   0.1% |
Set symmetry:                                0.003     0.003   0.0% |
Other:                                       8.495     8.495   0.8% |
-------------------------------------------------------------------
Total:                                              1102.942 100.0%

Memory usage: 507.18 MiB
Date: Fri Feb 17 10:04:16 2023
