27
Lattice="8.145870119269027 0.0 0.0 4.0729350596345135 7.0545304592155516 0.0 0.0 0.0 16.434050067376326" Properties=species:S:1:pos:R:3:tags:I:1:forces:R:3:magmoms:R:1 energy=-183.0807895498589 dipole="-0.2573472299722789 -0.14857949249971375 -0.00011453881210579061" magmom=0.0 free_energy=-183.8843689555734 pbc="T T F"
Rh       1.35759880       0.78381003       6.05714227        3       0.00092391       0.00053342      -0.00508720       0.00000000
Rh       4.07293506       0.78381578       6.05712311        3      -0.00000000       0.00079673      -0.00389750       0.00000000
Rh       6.78827132       0.78381003       6.05714227        3      -0.00092391       0.00053342      -0.00508720       0.00000000
Rh       2.71527191       3.13535734       6.05712311        3       0.00068999      -0.00039836      -0.00389750       0.00000000
Rh       5.43059821       3.13535734       6.05712311        3      -0.00068999      -0.00039836      -0.00389750       0.00000000
Rh       8.14587012       3.13531613       6.05707323        3       0.00000000       0.00014257      -0.00411895       0.00000000
Rh       4.07293506       5.48691040       6.05714227        3       0.00000000      -0.00106684      -0.00508720       0.00000000
Rh       6.78819848       5.48687239       6.05707323        3       0.00012347      -0.00007128      -0.00411895       0.00000000
Rh       9.50354176       5.48687239       6.05707323        3      -0.00012347      -0.00007128      -0.00411895       0.00000000
Rh      -0.00000000       1.56767068       8.21701162        2       0.00000000       0.00092839      -0.00153533       0.00000000
Rh       2.71526916       1.56766138       8.21701549        2       0.00091458       0.00052803      -0.00146300       0.00000000
Rh       5.43060096       1.56766138       8.21701549        2      -0.00091458       0.00052803      -0.00146300       0.00000000
Rh       1.35762759       3.91919365       8.21695113        2       0.00016357      -0.00009444      -0.00112247       0.00000000
Rh       4.07293506       3.91920770       8.21701549        2       0.00000000      -0.00105607      -0.00146300       0.00000000
Rh       6.78824253       3.91919365       8.21695113        2      -0.00016357      -0.00009444      -0.00112247       0.00000000
Rh       2.71529242       6.27069512       8.21701162        2      -0.00080401      -0.00046419      -0.00153533       0.00000000
Rh       5.43057770       6.27069512       8.21701162        2       0.00080401      -0.00046419      -0.00153533       0.00000000
Rh       8.14587012       6.27067361       8.21695113        2       0.00000000       0.00018887      -0.00112247       0.00000000
Rh      -0.00000000       0.00000000      10.37688422        1       0.00000000       0.00000000       0.00666573       0.00000000
Rh       2.71527830      -0.00003447      10.37689395        1       0.00081227       0.00034421       0.00524201       0.00000000
Rh       5.43059182      -0.00003447      10.37689395        1      -0.00081227       0.00034421       0.00524201       0.00000000
Rh       1.35760930       2.35151722      10.37689395        1       0.00070423       0.00053135       0.00524201       0.00000000
Rh       4.07293506       2.35151015      10.37689983        1       0.00000000      -0.00000000       0.00437365       0.00000000
Rh       6.78826082       2.35151722      10.37689395        1      -0.00070423       0.00053135       0.00524201       0.00000000
Rh       2.71526606       4.70304770      10.37689395        1      -0.00010804      -0.00087555       0.00524201       0.00000000
Rh       5.43060406       4.70304770      10.37689395        1       0.00010804      -0.00087555       0.00524201       0.00000000
Rh       8.14587012       4.70302031      10.37688782        1       0.00000000       0.00000000       0.00500816       0.00000000
