8
Lattice="16.0 0.0 0.0 0.0 16.0 0.0 0.0 0.0 16.0" Properties=species:S:1:pos:R:3:forces:R:3:magmoms:R:1 energy=-7.281261980622481 dipole="0.004739899956546762 0.0029291545377527414 -0.016218314741962354" magmom=0.0 free_energy=-7.281263661562163 pbc="F F F"
Na       5.85420090       9.51821519       7.63502435      -0.00237543       0.00220129       0.00898637       0.00000000
Na       5.55890265       6.15077688       6.48878796      -0.00041538      -0.00171343      -0.00906035       0.00000000
Na       8.67006843       5.86212800       8.22417477       0.00075897      -0.00101628       0.00991639       0.00000000
Na       8.48268208       8.93142748       9.78503282      -0.00237932      -0.00300708      -0.00544674       0.00000000
Na       6.50513838       8.82187150       4.52153476       0.00290339      -0.00434446       0.00559181       0.00000000
Na       8.65335720       6.02549864       4.97130163      -0.00283077       0.00383048       0.00512349       0.00000000
Na       9.24035732       8.99960948       6.61803588       0.00226795       0.00065649      -0.00969732       0.00000000
Na       5.67709171       6.75178436       9.68758793       0.00512704       0.00277481      -0.00478347       0.00000000
