7
Lattice="16.0 0.0 0.0 0.0 16.0 0.0 0.0 0.0 16.0" Properties=species:S:1:pos:R:3:forces:R:3 energy=-7.1308413234262575 stress="-7.859463662999293e-06 -2.338826039170149e-06 5.890854781126805e-06 -2.338826039170149e-06 6.378349269520905e-07 5.214147016122351e-06 5.890854781126805e-06 5.214147016122351e-06 -8.342303371540846e-06" free_energy=-7.1308413234262575 pbc="F F F"
Na      10.24217142       9.76258826       6.74017086       0.00915492      -0.01942548      -0.01195732
Na       8.39857967       9.62275144       8.93172999      -0.01211708       0.02344546       0.01273054
Na       6.29877989       7.72720694       8.28311585      -0.01377992      -0.00897463       0.00946627
Na       8.98963483       7.24868884       7.38143582       0.00501982       0.00218377       0.00176863
Na       8.35858405       7.03305744      10.18117756       0.00049868       0.00779833       0.00079365
Na       6.35884449       9.01289203      10.85593277       0.00528761      -0.01939866      -0.00404329
Na       7.42445216       9.38903723       6.23317623       0.00593597       0.01437121      -0.00875849
