8
Lattice="16.0 0.0 0.0 0.0 16.0 0.0 0.0 0.0 16.0" Properties=species:S:1:pos:R:3:forces:R:3 energy=-8.63773773508646 stress="5.562698047282926e-06 3.7476503928130735e-06 -7.266038878366912e-06 3.7476503928130735e-06 3.330293650995001e-06 -4.570847180731263e-06 -7.266038878366912e-06 -4.570847180731263e-06 -9.116481547468417e-06" free_energy=-8.63773773508646 pbc="F F F"
Na       9.02130716       7.85406012       7.52682058       0.00210301       0.00743406      -0.02479820
Na       7.50640645       5.80643273       8.84964025       0.00315983       0.00395105       0.00163534
Na       8.03259821      10.44683077       8.35685583       0.00936612       0.00165491       0.00255485
Na      10.13948136      10.24355470       6.40917207      -0.00934527      -0.00605619       0.01105926
Na      10.20319658       6.42329290       9.70425479       0.00022010      -0.00634813       0.00742164
Na       8.07139697       8.27888373      10.22653351      -0.00290604       0.00500251       0.01141461
Na       7.44795526       9.43400758       5.72039537      -0.00694280      -0.00368382      -0.00134940
Na       6.20613739       8.24181072       8.03025392       0.00434505      -0.00195439      -0.00793811
