7
Lattice="16.0 0.0 0.0 0.0 16.0 0.0 0.0 0.0 16.0" Properties=species:S:1:pos:R:3:tags:I:1:forces:R:3:magmoms:R:1 energy=-5.873667423036474 dipole="0.004625403583449944 0.0033767833853346613 -0.0009879025962948615" magmom=0.0 free_energy=-5.908328980731819 pbc="F F F"
Na       4.95919887       8.43285221       7.19684689        0       0.00316224       0.00054545       0.00237563       0.00000000
Na       6.25783909       5.92982267       9.20499471        1       0.00007189      -0.00362799      -0.00232966       0.00000000
Na       7.31328926       6.19883623       5.99806498        2      -0.00111330       0.00094845      -0.00071770       0.00000000
Na       8.61131342       8.32681635       8.39124760        3      -0.00525506       0.00232356      -0.00500948       0.00000000
Na       6.79078486      11.25100925       8.04049564        4      -0.00040293      -0.00055402      -0.00194413       0.00000000
Na       7.61911802       9.49269040       5.26994535        5       0.00331014      -0.00227403       0.00300031       0.00000000
Na       5.93041422       9.04816953      10.45495095        6      -0.00002668       0.00248495       0.00606107       0.00000000
