6
Lattice="16.0 0.0 0.0 0.0 16.0 0.0 0.0 0.0 16.0" Properties=species:S:1:pos:R:3:forces:R:3 energy=-4.749418158004177 stress="1.5053846259002894e-05 -1.353437730647281e-05 -9.858358254045822e-06 -1.353437730647281e-05 5.739585466895179e-06 -2.9744386285517422e-06 -9.858358254045822e-06 -2.9744386285517422e-06 4.067595925061478e-06" free_energy=-4.749418158004177 pbc="F F F"
Na       8.20001558      11.02676620       7.25407483       0.01289744      -0.01935988      -0.00124560
Na       7.34885825       8.34229595       7.83349862       0.02433723      -0.01251934      -0.01172316
Na       8.59961395       6.58146524       5.92363898      -0.01776612      -0.00876429      -0.00906317
Na       5.94116101       6.01815076       6.88662911      -0.00023805       0.00497613       0.00267221
Na      10.05599116       8.84907469       6.89185862      -0.01757295       0.02720402       0.02459442
Na       9.26737509       9.61934005       9.55330348      -0.00165755       0.00846335      -0.00523470
