8
Lattice="16.0 0.0 0.0 0.0 16.0 0.0 0.0 0.0 16.0" Properties=species:S:1:pos:R:3:tags:I:1:forces:R:3:magmoms:R:1 energy=-7.240843981548854 dipole="0.045155260276376764 0.04233182365690408 0.02594902293012461" magmom=0.0 free_energy=-7.240845693454025 pbc="F F F"
Na       7.78365081      10.40712086       7.27215215        0       0.00584194      -0.00281643      -0.00335698       0.00000000
Na      10.09978837       9.23991293       5.17045657        1      -0.00762611      -0.00921128      -0.00346455       0.00000000
Na       9.97023079       7.46630876       7.96378500        2      -0.00029655       0.00840545       0.00005167       0.00000000
Na       7.30436971       8.31840712       9.79411838        3      -0.00175264       0.00091079       0.00549550       0.00000000
Na       8.62233600       6.07669300       5.04147266        4      -0.00189299       0.00592450       0.00344309       0.00000000
Na       6.72264116       8.79097324       4.35120057        5       0.00377439       0.01708042      -0.00510125       0.00000000
Na       7.13994895       5.45281733       7.84062750        6       0.00048039      -0.01217957       0.00673072       0.00000000
Na       5.15626699       8.11468873       7.09020138        7       0.00182036      -0.00860371      -0.00688989       0.00000000
