6
Lattice="16.0 0.0 0.0 0.0 16.0 0.0 0.0 0.0 16.0" Properties=species:S:1:pos:R:3:tags:I:1:forces:R:3:magmoms:R:1 energy=-4.933809605876653 dipole="-0.0009720527200524689 0.0010295999720043732 -0.004513611712483051" magmom=0.0 free_energy=-4.933810445366746 pbc="F F F"
Na      10.57401885       9.20242471       8.97287337        0      -0.00700220      -0.00434621      -0.00097051       0.00000000
Na       8.22039475       8.88566473       6.67771345        0       0.00212724       0.00162487       0.00213343       0.00000000
Na       8.08640269       7.17304976       9.76002098        0       0.00380656       0.00563983      -0.00030196       0.00000000
Na       5.46921195       6.78234188       7.40939238        0       0.00524953       0.00388101      -0.00713989       0.00000000
Na       5.74425812       8.43008132       4.55103630        0      -0.00171072      -0.00347622       0.00604727       0.00000000
Na       5.48193464       5.23637728      10.32006357        0      -0.00197549      -0.00134537       0.00016323       0.00000000
