8
Lattice="16.0 0.0 0.0 0.0 16.0 0.0 0.0 0.0 16.0" Properties=species:S:1:pos:R:3:tags:I:1:forces:R:3:magmoms:R:1 energy=-7.152563517745977 dipole="-0.0013078026691446857 -0.007405754976826302 0.006667129832732053" magmom=0.0 free_energy=-7.152564640581934 pbc="F F F"
Na       5.07193749       7.35301882       8.35434958        0      -0.00546378      -0.00308098      -0.00367016       0.00000000
Na       5.14903123       9.73556520       5.95730841        1      -0.00079902       0.00127978       0.00302098       0.00000000
Na       7.56523476       9.90764489       8.31283445        2       0.00034551       0.00609370      -0.00880493       0.00000000
Na       7.55718281       7.38460913       5.84371914        3       0.00335719      -0.00133656      -0.00191708       0.00000000
Na       6.57642303       4.50629256       7.30105135        4      -0.00451134       0.00488426       0.00399767       0.00000000
Na       6.47571246       8.54216401      11.18640750        5      -0.00705832      -0.00004217       0.00986327       0.00000000
Na       8.39340996       6.60395862       9.22711955        6       0.00851804      -0.01241572      -0.00214801       0.00000000
Na      10.42418183       8.44552402       7.27035711        7       0.00253089       0.00483752      -0.00212366       0.00000000
