
  ___ ___ ___ _ _ _  
 |   |   |_  | | | | 
 | | | | | . | | | | 
 |__ |  _|___|_____|  22.8.0
 |___|_|             

User:   gotols@vera34-3
Date:   Tue Mar  7 16:07:52 2023
Arch:   x86_64
Pid:    2616505
CWD:    /cephyr/users/gotols/Vera/TIF320-Computational-materials-and-molecular-physics-Assignments
Python: 3.10.4
gpaw:   /apps/Arch/software/GPAW/22.8.0-foss-2022a/lib/python3.10/site-packages/gpaw
_gpaw:  /apps/Arch/software/GPAW/22.8.0-foss-2022a/lib/python3.10/site-packages/
        _gpaw.cpython-310-x86_64-linux-gnu.so
ase:    /apps/Arch/software/ASE/3.22.1-foss-2022a/lib/python3.10/site-packages/ase (version 3.22.1)
numpy:  /apps/Arch/software/SciPy-bundle/2022.05-foss-2022a/lib/python3.10/site-packages/numpy (version 1.22.3)
scipy:  /apps/Arch/software/SciPy-bundle/2022.05-foss-2022a/lib/python3.10/site-packages/scipy (version 1.8.1)
libxc:  5.2.3
units:  Angstrom and eV
cores: 4
OpenMP: False
OMP_NUM_THREADS: 1

Input parameters:
  kpts: {gamma: True}
  mode: {ecut: 450.00000000000006,
         name: pw}
  xc: PBE

System changes: positions, numbers, cell, pbc, initial_charges, initial_magmoms 

Initialize ...

species:
  O:
    name: Oxygen
    id: 32ecd46bf208036f09c70b0ec9a88b78
    Z: 8.0
    valence: 6
    core: 2
    charge: 0.0
    file: /apps/Common/software/GPAW-setups/0.9.20000/O.PBE.gz
    compensation charges: {type: gauss,
                           rc: 0.21,
                           lmax: 2}
    cutoffs: {filter: 1.17,
              core: 0.83}
    valence states:
      #              energy  rcut
      - 2s(2.00)   -23.961   0.688
      - 2p(4.00)    -9.029   0.598
      -  s           3.251   0.688
      -  p          18.182   0.598
      -  d           0.000   0.619
  
    # Using partial waves for O as LCAO basis

  C:
    name: Carbon
    id: 4aa54d4b901d75f77cc0ea3eec22967b
    Z: 6.0
    valence: 4
    core: 2
    charge: 0.0
    file: /apps/Common/software/GPAW-setups/0.9.20000/C.PBE.gz
    compensation charges: {type: gauss,
                           rc: 0.20,
                           lmax: 2}
    cutoffs: {filter: 1.14,
              core: 1.14}
    valence states:
      #              energy  rcut
      - 2s(2.00)   -13.751   0.635
      - 2p(2.00)    -5.284   0.635
      -  s          13.461   0.635
      -  p          21.927   0.635
      -  d           0.000   0.635
  
    # Using partial waves for C as LCAO basis

Reference energy: -3068.480417  # eV

Spin-paired calculation

Convergence criteria:
 Maximum [total energy] change in last 3 cyles: 0.0005 eV / electron
 Maximum integral of absolute [dens]ity change: 0.0001 electrons / valence electron
 Maximum integral of absolute [eigenst]ate change: 4e-08 eV^2 / valence electron
 Maximum number of scf [iter]ations: 333
 (Square brackets indicate name in SCF output, whereas a 'c' in
 the SCF output indicates the quantity has converged.)

Symmetries present (total): 8

  ( 1  0  0)  ( 1  0  0)  ( 0  1  0)  ( 0  1  0)  ( 0 -1  0)  ( 0 -1  0)
  ( 0  1  0)  ( 0 -1  0)  ( 1  0  0)  (-1  0  0)  ( 1  0  0)  (-1  0  0)
  ( 0  0  1)  ( 0  0  1)  ( 0  0  1)  ( 0  0  1)  ( 0  0  1)  ( 0  0  1)

  (-1  0  0)  (-1  0  0)
  ( 0  1  0)  ( 0 -1  0)
  ( 0  0  1)  ( 0  0  1)

1 k-point (Gamma)
1 k-point in the irreducible part of the Brillouin zone
       k-points in crystal coordinates                weights
   0:     0.00000000    0.00000000    0.00000000          1/1

Wave functions: Plane wave expansion
  Cutoff energy: 450.000 eV
  Number of coefficients: 37529 (reduced to 18765)
  Pulay-stress correction: 0.000000 eV/Ang^3 (de/decut=0.000000)
  Using FFTW library
  ScaLapack parameters: grid=1x1, blocksize=None
  Wavefunction extrapolation:
    Improved wavefunction reuse through dual PAW basis 

Occupation numbers: # Zero width 

Eigensolver
   Davidson(niter=2) 

Densities:
  Coarse grid: 60*60*60 grid
  Fine grid: 120*120*120 grid
  Total Charge: 0.000000 

Density mixing:
  Method: separate
  Backend: pulay
  Linear mixing parameter: 0.05
  old densities: 5
  Damping of long wavelength oscillations: 50 

Hamiltonian:
  XC and Coulomb potentials evaluated on a 120*120*120 grid
  Using the PBE Exchange-Correlation functional
  External potential:
    NoExternalPotential
 

XC parameters: PBE with 2 nearest neighbor stencil

Memory estimate:
  Process memory now: 337.51 MiB
  Calculator: 45.59 MiB
    Density: 27.26 MiB
      Arrays: 10.71 MiB
      Localized functions: 12.43 MiB
      Mixer: 4.12 MiB
    Hamiltonian: 7.31 MiB
      Arrays: 7.00 MiB
      XC: 0.00 MiB
      Poisson: 0.00 MiB
      vbar: 0.30 MiB
    Wavefunctions: 11.03 MiB
      Arrays psit_nG: 2.29 MiB
      Eigensolver: 3.73 MiB
      Projections: 0.00 MiB
      Projectors: 0.68 MiB
      PW-descriptor: 4.33 MiB

Total number of cores used: 4
Domain decomposition: 2 x 2 x 1

Number of atoms: 2
Number of atomic orbitals: 8
Number of bands in calculation: 8
Number of valence electrons: 10
Bands to converge: occupied

... initialized

Initializing position-dependent things.

Density initialized from atomic densities
Creating initial wave functions:
  8 bands from LCAO basis set

        .----------------------------.  
       /|                            |  
      / |                            |  
     /  |                            |  
    /   |                            |  
   /    |                            |  
  /     |                            |  
 *      |                            |  
 |      |                            |  
 |      |                            |  
 |      |          O                 |  
 |      |                            |  
 |      |          C                 |  
 |      |                            |  
 |      |                            |  
 |      .----------------------------.  
 |     /                            /   
 |    /                            /    
 |   /                            /     
 |  /                            /      
 | /                            /       
 |/                            /        
 *----------------------------*         

Positions:
   0 O      6.000000    6.000000    6.575170    ( 0.0000,  0.0000,  0.0000)
   1 C      6.000000    6.000000    5.424830    ( 0.0000,  0.0000,  0.0000)

Unit cell:
           periodic     x           y           z      points  spacing
  1. axis:    no    12.000000    0.000000    0.000000    60     0.2000
  2. axis:    no     0.000000   12.000000    0.000000    60     0.2000
  3. axis:    no     0.000000    0.000000   12.000000    60     0.2000

  Lengths:  12.000000  12.000000  12.000000
  Angles:   90.000000  90.000000  90.000000

Effective grid spacing dv^(1/3) = 0.2000

     iter     time        total  log10-change:
                         energy  eigst   dens
iter:   1 16:07:56   -14.756275
iter:   2 16:07:56   -14.699537  -1.16  -0.92
iter:   3 16:07:56   -14.333504  -1.48  -0.95
iter:   4 16:07:57   -14.268437  -2.08  -1.18
iter:   5 16:07:57   -14.218097  -1.54  -1.32
iter:   6 16:07:57   -14.219117  -2.62  -1.71
iter:   7 16:07:58   -14.195578  -2.44  -1.70
iter:   8 16:07:58   -14.194326  -3.46  -2.34
iter:   9 16:07:58   -14.194292c -4.84  -2.80
iter:  10 16:07:59   -14.194362c -4.50  -2.84
iter:  11 16:07:59   -14.194273c -5.01  -2.92
iter:  12 16:07:59   -14.194270c -5.74  -3.56
iter:  13 16:08:00   -14.194271c -6.54  -3.66
iter:  14 16:08:00   -14.194269c -6.78  -3.70
iter:  15 16:08:01   -14.194269c -7.43c -3.82
iter:  16 16:08:01   -14.194269c -7.06  -3.86
iter:  17 16:08:01   -14.194269c -7.43c -4.27c

Converged after 17 iterations.

Dipole moment: (-0.000000, -0.000000, 0.035490) |e|*Ang

Energy contributions relative to reference atoms: (reference = -3068.480417)

Kinetic:         +9.950350
Potential:      -13.501209
External:        +0.000000
XC:             -10.609378
Entropy (-ST):   +0.000000
Local:           -0.034032
--------------------------
Free energy:    -14.194269
Extrapolated:   -14.194269

 Band  Eigenvalues  Occupancy
    0    -29.03683    2.00000
    1    -14.07523    2.00000
    2    -11.56089    2.00000
    3    -11.56089    2.00000
    4     -8.97087    2.00000
    5     -2.09441    0.00000
    6     -2.09441    0.00000
    7     -0.22806    0.00000

Fermi level: -5.53264

Gap: 6.876 eV
Transition (v -> c):
  (s=0, k=0, n=4, [0.00, 0.00, 0.00]) -> (s=0, k=0, n=5, [0.00, 0.00, 0.00])

Forces in eV/Ang:
  0 O     0.00000    0.00000   -1.06300
  1 C     0.00000    0.00000    1.08216

System changes: positions 

Initializing position-dependent things.

Density initialized from wave functions
        .----------------------------.  
       /|                            |  
      / |                            |  
     /  |                            |  
    /   |                            |  
   /    |                            |  
  /     |                            |  
 *      |                            |  
 |      |                            |  
 |      |                            |  
 |      |                            |  
 |      |          O                 |  
 |      |                            |  
 |      |                            |  
 |      |                            |  
 |      .----------------------------.  
 |     /                            /   
 |    /                            /    
 |   /                            /     
 |  /                            /      
 | /                            /       
 |/                            /        
 *----------------------------*         

Positions:
   0 O      6.000000    6.000000    6.294865    ( 0.0000,  0.0000,  0.0000)
   1 C      6.000000    6.000000    5.710188    ( 0.0000,  0.0000,  0.0000)

Unit cell:
           periodic     x           y           z      points  spacing
  1. axis:    no    12.000000    0.000000    0.000000    60     0.2000
  2. axis:    no     0.000000   12.000000    0.000000    60     0.2000
  3. axis:    no     0.000000    0.000000   12.000000    60     0.2000

  Lengths:  12.000000  12.000000  12.000000
  Angles:   90.000000  90.000000  90.000000

Effective grid spacing dv^(1/3) = 0.2000

     iter     time        total  log10-change:
                         energy  eigst   dens
iter:   1 16:08:02    59.939732  +0.99
iter:   2 16:08:02    61.317456  -1.09  -0.61
iter:   3 16:08:02    66.203061  +0.51  -0.64
iter:   4 16:08:03    68.127308  -0.40  -0.84
iter:   5 16:08:03    68.116196  -1.92  -1.16
iter:   6 16:08:03    68.087238  -1.34  -1.22
iter:   7 16:08:04    68.046450  -1.53  -1.71
iter:   8 16:08:04    68.053113  -3.15  -1.71
iter:   9 16:08:04    68.105570  -1.81  -1.70
iter:  10 16:08:05    68.103928  -3.13  -2.52
iter:  11 16:08:05    68.104446c -4.47  -2.31
iter:  12 16:08:06    68.105971c -3.51  -2.43
iter:  13 16:08:06    68.105948c -5.57  -3.28
iter:  14 16:08:06    68.105984c -5.19  -3.20
iter:  15 16:08:07    68.105974c -6.15  -3.41
iter:  16 16:08:07    68.105978c -6.40  -3.42
iter:  17 16:08:07    68.105980c -6.60  -3.45
iter:  18 16:08:08    68.105981c -6.00  -3.51
iter:  19 16:08:08    68.105981c -6.94  -3.57
iter:  20 16:08:08    68.105986c -6.23  -3.60
iter:  21 16:08:09    68.105985c -7.96c -3.82
iter:  22 16:08:09    68.105982c -7.32  -3.81
iter:  23 16:08:09    68.105984c -6.59  -3.84
iter:  24 16:08:10    68.105984c -7.67c -3.91
iter:  25 16:08:10    68.105984c -7.58c -4.03c

Converged after 25 iterations.

Dipole moment: (-0.000000, -0.000000, 0.309797) |e|*Ang

Energy contributions relative to reference atoms: (reference = -3068.480417)

Kinetic:       +279.573885
Potential:     -169.824729
External:        +0.000000
XC:             -42.525887
Entropy (-ST):   +0.000000
Local:           +0.882714
--------------------------
Free energy:    +68.105984
Extrapolated:   +68.105984

 Band  Eigenvalues  Occupancy
    0    -30.55000    2.00000
    1    -20.77428    2.00000
    2    -20.77428    2.00000
    3    -11.87801    2.00000
    4     -7.13253    2.00000
    5     -0.24086    0.00000
    6      0.64569    0.00000
    7      0.84428    0.00000

Fermi level: -3.68670

Gap: 6.892 eV
Transition (v -> c):
  (s=0, k=0, n=4, [0.00, 0.00, 0.00]) -> (s=0, k=0, n=5, [0.00, 0.00, 0.00])

Forces in eV/Ang:
  0 O    -0.00000    0.00000  521.49799
  1 C    -0.00000    0.00000 -521.59511

System changes: positions 

Initializing position-dependent things.

Density initialized from wave functions
        .----------------------------.  
       /|                            |  
      / |                            |  
     /  |                            |  
    /   |                            |  
   /    |                            |  
  /     |                            |  
 *      |                            |  
 |      |                            |  
 |      |                            |  
 |      |          O                 |  
 |      |                            |  
 |      |          C                 |  
 |      |                            |  
 |      |                            |  
 |      .----------------------------.  
 |     /                            /   
 |    /                            /    
 |   /                            /     
 |  /                            /      
 | /                            /       
 |/                            /        
 *----------------------------*         

Positions:
   0 O      6.000000    6.000000    6.484033    ( 0.0000,  0.0000,  0.0000)
   1 C      6.000000    6.000000    5.523915    ( 0.0000,  0.0000,  0.0000)

Unit cell:
           periodic     x           y           z      points  spacing
  1. axis:    no    12.000000    0.000000    0.000000    60     0.2000
  2. axis:    no     0.000000   12.000000    0.000000    60     0.2000
  3. axis:    no     0.000000    0.000000   12.000000    60     0.2000

  Lengths:  12.000000  12.000000  12.000000
  Angles:   90.000000  90.000000  90.000000

Effective grid spacing dv^(1/3) = 0.2000

     iter     time        total  log10-change:
                         energy  eigst   dens
iter:   1 16:08:11   -13.802844  +0.85
iter:   2 16:08:11   -13.569532  -0.66  -0.66
iter:   3 16:08:11   -11.470233  -0.05  -0.68
iter:   4 16:08:12   -11.433569  -1.54  -1.18
iter:   5 16:08:12   -11.343985  -2.23  -1.19
iter:   6 16:08:12   -11.427948  -0.83  -1.27
iter:   7 16:08:13   -11.439423  -2.21  -1.46
iter:   8 16:08:13   -11.440866  -2.14  -1.41
iter:   9 16:08:13   -11.309518  -1.06  -1.36
iter:  10 16:08:14   -11.313777  -2.30  -2.18
iter:  11 16:08:14   -11.310857c -3.97  -2.12
iter:  12 16:08:14   -11.308371  -2.46  -2.20
iter:  13 16:08:15   -11.307675c -3.80  -2.49
iter:  14 16:08:15   -11.307943c -3.26  -2.67
iter:  15 16:08:15   -11.307562c -3.68  -2.66
iter:  16 16:08:16   -11.307580c -4.24  -2.99
iter:  17 16:08:16   -11.307722c -4.14  -3.07
iter:  18 16:08:16   -11.307655c -4.83  -2.92
iter:  19 16:08:17   -11.307621c -4.83  -3.14
iter:  20 16:08:17   -11.307619c -5.73  -3.58
iter:  21 16:08:17   -11.307620c -5.71  -3.73
iter:  22 16:08:18   -11.307619c -6.76  -3.72
iter:  23 16:08:18   -11.307618c -6.58  -3.70
iter:  24 16:08:19   -11.307617c -6.53  -3.90
iter:  25 16:08:19   -11.307618c -6.20  -4.01c
iter:  26 16:08:19   -11.307617c -6.21  -3.81
iter:  27 16:08:20   -11.307617c -6.94  -4.24c
iter:  28 16:08:20   -11.307617c -7.11  -4.26c
iter:  29 16:08:20   -11.307617c -7.39  -4.22c
iter:  30 16:08:21   -11.307617c -7.90c -4.57c

Converged after 30 iterations.

Dipole moment: (-0.000000, -0.000000, 0.157953) |e|*Ang

Energy contributions relative to reference atoms: (reference = -3068.480417)

Kinetic:        +48.238803
Potential:      -42.222848
External:        +0.000000
XC:             -17.195005
Entropy (-ST):   +0.000000
Local:           -0.128567
--------------------------
Free energy:    -11.307617
Extrapolated:   -11.307617

 Band  Eigenvalues  Occupancy
    0    -31.70782    2.00000
    1    -13.96797    2.00000
    2    -13.45574    2.00000
    3    -13.45574    2.00000
    4     -8.46027    2.00000
    5     -0.21862    0.00000
    6     -0.13804    0.00000
    7      0.67384    0.00000

Fermi level: -4.33944

Gap: 8.242 eV
Transition (v -> c):
  (s=0, k=0, n=4, [0.00, 0.00, 0.00]) -> (s=0, k=0, n=5, [0.00, 0.00, 0.00])

Forces in eV/Ang:
  0 O    -0.00000    0.00000   39.79003
  1 C     0.00000    0.00000  -39.82327

System changes: positions 

Initializing position-dependent things.

Density initialized from wave functions
        .----------------------------.  
       /|                            |  
      / |                            |  
     /  |                            |  
    /   |                            |  
   /    |                            |  
  /     |                            |  
 *      |                            |  
 |      |                            |  
 |      |                            |  
 |      |          O                 |  
 |      |                            |  
 |      |          C                 |  
 |      |                            |  
 |      |                            |  
 |      .----------------------------.  
 |     /                            /   
 |    /                            /    
 |   /                            /     
 |  /                            /      
 | /                            /       
 |/                            /        
 *----------------------------*         

Positions:
   0 O      6.000000    6.000000    6.572014    ( 0.0000,  0.0000,  0.0000)
   1 C      6.000000    6.000000    5.430745    ( 0.0000,  0.0000,  0.0000)

Unit cell:
           periodic     x           y           z      points  spacing
  1. axis:    no    12.000000    0.000000    0.000000    60     0.2000
  2. axis:    no     0.000000   12.000000    0.000000    60     0.2000
  3. axis:    no     0.000000    0.000000   12.000000    60     0.2000

  Lengths:  12.000000  12.000000  12.000000
  Angles:   90.000000  90.000000  90.000000

Effective grid spacing dv^(1/3) = 0.2000

     iter     time        total  log10-change:
                         energy  eigst   dens
iter:   1 16:08:21   -14.481795  -0.03
iter:   2 16:08:21   -14.455179  -1.55  -1.16
iter:   3 16:08:22   -14.286618  -0.93  -1.17
iter:   4 16:08:22   -14.224572  -2.52  -1.48
iter:   5 16:08:23   -14.376170  -1.52  -1.67
iter:   6 16:08:23   -14.198230  -1.39  -1.32
iter:   7 16:08:23   -14.203989  -1.63  -1.95
iter:   8 16:08:24   -14.200784  -2.86  -2.12
iter:   9 16:08:24   -14.199838c -3.49  -2.35
iter:  10 16:08:24   -14.199667c -4.85  -2.71
iter:  11 16:08:25   -14.199760c -3.71  -2.83
iter:  12 16:08:25   -14.199851c -3.51  -2.86
iter:  13 16:08:25   -14.199602c -4.15  -2.77
iter:  14 16:08:26   -14.199607c -4.74  -3.57
iter:  15 16:08:26   -14.199609c -5.25  -3.84
iter:  16 16:08:26   -14.199610c -6.33  -3.94
iter:  17 16:08:27   -14.199609c -7.47c -3.93
iter:  18 16:08:27   -14.199610c -5.81  -4.01c
iter:  19 16:08:27   -14.199609c -6.44  -3.85
iter:  20 16:08:28   -14.199610c -6.02  -4.22c
iter:  21 16:08:28   -14.199609c -6.49  -3.91
iter:  22 16:08:28   -14.199609c -6.76  -4.49c
iter:  23 16:08:29   -14.199609c -7.89c -4.63c

Converged after 23 iterations.

Dipole moment: (-0.000000, -0.000000, 0.041728) |e|*Ang

Energy contributions relative to reference atoms: (reference = -3068.480417)

Kinetic:        +11.130031
Potential:      -14.437090
External:        +0.000000
XC:             -10.856871
Entropy (-ST):   +0.000000
Local:           -0.035679
--------------------------
Free energy:    -14.199609
Extrapolated:   -14.199609

 Band  Eigenvalues  Occupancy
    0    -29.16452    2.00000
    1    -14.07029    2.00000
    2    -11.63813    2.00000
    3    -11.63813    2.00000
    4     -8.95015    2.00000
    5     -2.00835    0.00000
    6     -0.22746    0.00000
    7      0.65718    0.00000

Fermi level: -5.47925

Gap: 6.942 eV
Transition (v -> c):
  (s=0, k=0, n=4, [0.00, 0.00, 0.00]) -> (s=0, k=0, n=5, [0.00, 0.00, 0.00])

Forces in eV/Ang:
  0 O     0.00000    0.00000   -0.07460
  1 C     0.00000    0.00000    0.09859

System changes: positions 

Initializing position-dependent things.

Density initialized from wave functions
        .----------------------------.  
       /|                            |  
      / |                            |  
     /  |                            |  
    /   |                            |  
   /    |                            |  
  /     |                            |  
 *      |                            |  
 |      |                            |  
 |      |                            |  
 |      |          O                 |  
 |      |                            |  
 |      |          C                 |  
 |      |                            |  
 |      |                            |  
 |      .----------------------------.  
 |     /                            /   
 |    /                            /    
 |   /                            /     
 |  /                            /      
 | /                            /       
 |/                            /        
 *----------------------------*         

Positions:
   0 O      6.000000    6.000000    6.571777    ( 0.0000,  0.0000,  0.0000)
   1 C      6.000000    6.000000    5.431246    ( 0.0000,  0.0000,  0.0000)

Unit cell:
           periodic     x           y           z      points  spacing
  1. axis:    no    12.000000    0.000000    0.000000    60     0.2000
  2. axis:    no     0.000000   12.000000    0.000000    60     0.2000
  3. axis:    no     0.000000    0.000000   12.000000    60     0.2000

  Lengths:  12.000000  12.000000  12.000000
  Angles:   90.000000  90.000000  90.000000

Effective grid spacing dv^(1/3) = 0.2000

     iter     time        total  log10-change:
                         energy  eigst   dens
iter:   1 16:08:29   -14.199647  -4.96
iter:   2 16:08:30   -14.199646  -6.45  -3.63
iter:   3 16:08:30   -14.199645c -5.67  -3.65
iter:   4 16:08:30   -14.199644c -7.31  -3.88
iter:   5 16:08:31   -14.199655c -5.56  -3.96
iter:   6 16:08:31   -14.199643c -5.41  -3.44
iter:   7 16:08:31   -14.199644c -6.44  -4.59c
iter:   8 16:08:32   -14.199644c -7.72c -4.27c

Converged after 8 iterations.

Dipole moment: (-0.000000, -0.000000, 0.042189) |e|*Ang

Energy contributions relative to reference atoms: (reference = -3068.480417)

Kinetic:        +11.227865
Potential:      -14.514092
External:        +0.000000
XC:             -10.876947
Entropy (-ST):   +0.000000
Local:           -0.036469
--------------------------
Free energy:    -14.199644
Extrapolated:   -14.199644

 Band  Eigenvalues  Occupancy
    0    -29.17512    2.00000
    1    -14.07019    2.00000
    2    -11.64465    2.00000
    3    -11.64465    2.00000
    4     -8.94845    2.00000
    5     -2.00137    0.00000
    6     -1.90490    0.00000
    7     -0.22740    0.00000

Fermi level: -5.47491

Gap: 6.947 eV
Transition (v -> c):
  (s=0, k=0, n=4, [0.00, 0.00, 0.00]) -> (s=0, k=0, n=5, [0.00, 0.00, 0.00])

Forces in eV/Ang:
  0 O     0.00000    0.00000    0.00558
  1 C     0.00000    0.00000    0.01432

System changes: positions 

Initializing position-dependent things.

Density initialized from wave functions
        .----------------------------.  
       /|                            |  
      / |                            |  
     /  |                            |  
    /   |                            |  
   /    |                            |  
  /     |                            |  
 *      |                            |  
 |      |                            |  
 |      |                            |  
 |      |          O                 |  
 |      |                            |  
 |      |          C                 |  
 |      |                            |  
 |      |                            |  
 |      .----------------------------.  
 |     /                            /   
 |    /                            /    
 |   /                            /     
 |  /                            /      
 | /                            /       
 |/                            /        
 *----------------------------*         

Positions:
   0 O      6.000000    6.000000    6.571774    ( 0.0000,  0.0000,  0.0000)
   1 C      6.000000    6.000000    5.431299    ( 0.0000,  0.0000,  0.0000)

Unit cell:
           periodic     x           y           z      points  spacing
  1. axis:    no    12.000000    0.000000    0.000000    60     0.2000
  2. axis:    no     0.000000   12.000000    0.000000    60     0.2000
  3. axis:    no     0.000000    0.000000   12.000000    60     0.2000

  Lengths:  12.000000  12.000000  12.000000
  Angles:   90.000000  90.000000  90.000000

Effective grid spacing dv^(1/3) = 0.2000

     iter     time        total  log10-change:
                         energy  eigst   dens
iter:   1 16:08:32   -14.199644  -6.84
iter:   2 16:08:33   -14.199644  -8.39c -4.26c
iter:   3 16:08:33   -14.199644c -7.53c -4.34c

Converged after 3 iterations.

Dipole moment: (-0.000000, -0.000000, 0.042245) |e|*Ang

Energy contributions relative to reference atoms: (reference = -3068.480417)

Kinetic:        +11.241277
Potential:      -14.524574
External:        +0.000000
XC:             -10.879110
Entropy (-ST):   +0.000000
Local:           -0.037237
--------------------------
Free energy:    -14.199644
Extrapolated:   -14.199644

 Band  Eigenvalues  Occupancy
    0    -29.17584    2.00000
    1    -14.06991    2.00000
    2    -11.64504    2.00000
    3    -11.64504    2.00000
    4     -8.94818    2.00000
    5     -2.00075    0.00000
    6     -1.98701    0.00000
    7     -0.22740    0.00000

Fermi level: -5.47446

Gap: 6.947 eV
Transition (v -> c):
  (s=0, k=0, n=4, [0.00, 0.00, 0.00]) -> (s=0, k=0, n=5, [0.00, 0.00, 0.00])

Forces in eV/Ang:
  0 O     0.00000    0.00000    0.01538
  1 C     0.00000    0.00000    0.00583

System changes: positions 

Initializing position-dependent things.

Density initialized from wave functions
        .----------------------------.  
       /|                            |  
      / |                            |  
     /  |                            |  
    /   |                            |  
   /    |                            |  
  /     |                            |  
 *      |                            |  
 |      |                            |  
 |      |                            |  
 |      |          O                 |  
 |      |                            |  
 |      |          C                 |  
 |      |                            |  
 |      |                            |  
 |      .----------------------------.  
 |     /                            /   
 |    /                            /    
 |   /                            /     
 |  /                            /      
 | /                            /       
 |/                            /        
 *----------------------------*         

Positions:
   0 O      6.000000    6.000000    6.571783    ( 0.0000,  0.0000,  0.0000)
   1 C      6.000000    6.000000    5.431308    ( 0.0000,  0.0000,  0.0000)

Unit cell:
           periodic     x           y           z      points  spacing
  1. axis:    no    12.000000    0.000000    0.000000    60     0.2000
  2. axis:    no     0.000000   12.000000    0.000000    60     0.2000
  3. axis:    no     0.000000    0.000000   12.000000    60     0.2000

  Lengths:  12.000000  12.000000  12.000000
  Angles:   90.000000  90.000000  90.000000

Effective grid spacing dv^(1/3) = 0.2000

     iter     time        total  log10-change:
                         energy  eigst   dens
iter:   1 16:08:33   -14.199644  -7.67c
iter:   2 16:08:34   -14.199644  -9.55c -4.53c
iter:   3 16:08:34   -14.199644c -8.11c -4.61c

Converged after 3 iterations.

Dipole moment: (-0.000000, -0.000000, 0.042242) |e|*Ang

Energy contributions relative to reference atoms: (reference = -3068.480417)

Kinetic:        +11.243360
Potential:      -14.525929
External:        +0.000000
XC:             -10.879310
Entropy (-ST):   +0.000000
Local:           -0.037766
--------------------------
Free energy:    -14.199644
Extrapolated:   -14.199644

 Band  Eigenvalues  Occupancy
    0    -29.17581    2.00000
    1    -14.06979    2.00000
    2    -11.64502    2.00000
    3    -11.64502    2.00000
    4     -8.94818    2.00000
    5     -2.00075    0.00000
    6     -1.99798    0.00000
    7     -0.22740    0.00000

Fermi level: -5.47447

Gap: 6.947 eV
Transition (v -> c):
  (s=0, k=0, n=4, [0.00, 0.00, 0.00]) -> (s=0, k=0, n=5, [0.00, 0.00, 0.00])

Forces in eV/Ang:
  0 O    -0.00000    0.00000    0.01743
  1 C     0.00000    0.00000    0.00573

System changes: positions 

Initializing position-dependent things.

Density initialized from wave functions
        .----------------------------.  
       /|                            |  
      / |                            |  
     /  |                            |  
    /   |                            |  
   /    |                            |  
  /     |                            |  
 *      |                            |  
 |      |                            |  
 |      |                            |  
 |      |          O                 |  
 |      |                            |  
 |      |          C                 |  
 |      |                            |  
 |      |                            |  
 |      .----------------------------.  
 |     /                            /   
 |    /                            /    
 |   /                            /     
 |  /                            /      
 | /                            /       
 |/                            /        
 *----------------------------*         

Positions:
   0 O      6.000000    6.000000    6.571792    ( 0.0000,  0.0000,  0.0000)
   1 C      6.000000    6.000000    5.431316    ( 0.0000,  0.0000,  0.0000)

Unit cell:
           periodic     x           y           z      points  spacing
  1. axis:    no    12.000000    0.000000    0.000000    60     0.2000
  2. axis:    no     0.000000   12.000000    0.000000    60     0.2000
  3. axis:    no     0.000000    0.000000   12.000000    60     0.2000

  Lengths:  12.000000  12.000000  12.000000
  Angles:   90.000000  90.000000  90.000000

Effective grid spacing dv^(1/3) = 0.2000

     iter     time        total  log10-change:
                         energy  eigst   dens
iter:   1 16:08:35   -14.199644  -8.25c
iter:   2 16:08:35   -14.199644  -9.93c -4.92c
iter:   3 16:08:35   -14.199644c -8.87c -5.00c

Converged after 3 iterations.

Dipole moment: (-0.000000, -0.000000, 0.042238) |e|*Ang

Energy contributions relative to reference atoms: (reference = -3068.480417)

Kinetic:        +11.243174
Potential:      -14.525770
External:        +0.000000
XC:             -10.879275
Entropy (-ST):   +0.000000
Local:           -0.037774
--------------------------
Free energy:    -14.199644
Extrapolated:   -14.199644

 Band  Eigenvalues  Occupancy
    0    -29.17577    2.00000
    1    -14.06977    2.00000
    2    -11.64499    2.00000
    3    -11.64499    2.00000
    4     -8.94822    2.00000
    5     -2.00078    0.00000
    6     -2.00017    0.00000
    7     -0.22740    0.00000

Fermi level: -5.47450

Gap: 6.947 eV
Transition (v -> c):
  (s=0, k=0, n=4, [0.00, 0.00, 0.00]) -> (s=0, k=0, n=5, [0.00, 0.00, 0.00])

Forces in eV/Ang:
  0 O     0.00000    0.00000    0.01704
  1 C     0.00000    0.00000    0.00629

System changes: positions 

Initializing position-dependent things.

Density initialized from wave functions
        .----------------------------.  
       /|                            |  
      / |                            |  
     /  |                            |  
    /   |                            |  
   /    |                            |  
  /     |                            |  
 *      |                            |  
 |      |                            |  
 |      |                            |  
 |      |          O                 |  
 |      |                            |  
 |      |          C                 |  
 |      |                            |  
 |      |                            |  
 |      .----------------------------.  
 |     /                            /   
 |    /                            /    
 |   /                            /     
 |  /                            /      
 | /                            /       
 |/                            /        
 *----------------------------*         

Positions:
   0 O      6.000000    6.000000    6.571800    ( 0.0000,  0.0000,  0.0000)
   1 C      6.000000    6.000000    5.431323    ( 0.0000,  0.0000,  0.0000)

Unit cell:
           periodic     x           y           z      points  spacing
  1. axis:    no    12.000000    0.000000    0.000000    60     0.2000
  2. axis:    no     0.000000   12.000000    0.000000    60     0.2000
  3. axis:    no     0.000000    0.000000   12.000000    60     0.2000

  Lengths:  12.000000  12.000000  12.000000
  Angles:   90.000000  90.000000  90.000000

Effective grid spacing dv^(1/3) = 0.2000

     iter     time        total  log10-change:
                         energy  eigst   dens
iter:   1 16:08:36   -14.199645  -8.67c
iter:   2 16:08:36   -14.199645  -10.21c -5.30c
iter:   3 16:08:36   -14.199645c -9.60c -5.38c

Converged after 3 iterations.

Dipole moment: (-0.000000, -0.000000, 0.042237) |e|*Ang

Energy contributions relative to reference atoms: (reference = -3068.480417)

Kinetic:        +11.243271
Potential:      -14.525862
External:        +0.000000
XC:             -10.879283
Entropy (-ST):   +0.000000
Local:           -0.037771
--------------------------
Free energy:    -14.199645
Extrapolated:   -14.199645

 Band  Eigenvalues  Occupancy
    0    -29.17575    2.00000
    1    -14.06975    2.00000
    2    -11.64497    2.00000
    3    -11.64497    2.00000
    4     -8.94822    2.00000
    5     -2.00078    0.00000
    6     -2.00064    0.00000
    7     -0.22740    0.00000

Fermi level: -5.47450

Gap: 6.947 eV
Transition (v -> c):
  (s=0, k=0, n=4, [0.00, 0.00, 0.00]) -> (s=0, k=0, n=5, [0.00, 0.00, 0.00])

Forces in eV/Ang:
  0 O     0.00000    0.00000    0.01712
  1 C     0.00000    0.00000    0.00638

System changes: positions 

Initializing position-dependent things.

Density initialized from wave functions
        .----------------------------.  
       /|                            |  
      / |                            |  
     /  |                            |  
    /   |                            |  
   /    |                            |  
  /     |                            |  
 *      |                            |  
 |      |                            |  
 |      |                            |  
 |      |          O                 |  
 |      |                            |  
 |      |          C                 |  
 |      |                            |  
 |      |                            |  
 |      .----------------------------.  
 |     /                            /   
 |    /                            /    
 |   /                            /     
 |  /                            /      
 | /                            /       
 |/                            /        
 *----------------------------*         

Positions:
   0 O      6.000000    6.000000    6.571806    ( 0.0000,  0.0000,  0.0000)
   1 C      6.000000    6.000000    5.431329    ( 0.0000,  0.0000,  0.0000)

Unit cell:
           periodic     x           y           z      points  spacing
  1. axis:    no    12.000000    0.000000    0.000000    60     0.2000
  2. axis:    no     0.000000   12.000000    0.000000    60     0.2000
  3. axis:    no     0.000000    0.000000   12.000000    60     0.2000

  Lengths:  12.000000  12.000000  12.000000
  Angles:   90.000000  90.000000  90.000000

Effective grid spacing dv^(1/3) = 0.2000

     iter     time        total  log10-change:
                         energy  eigst   dens
iter:   1 16:08:37   -14.199645  -8.93c
iter:   2 16:08:37   -14.199645  -10.33c -5.72c
iter:   3 16:08:38   -14.199645c -10.45c -5.80c

Converged after 3 iterations.

Dipole moment: (-0.000000, -0.000000, 0.042235) |e|*Ang

Energy contributions relative to reference atoms: (reference = -3068.480417)

Kinetic:        +11.243204
Potential:      -14.525811
External:        +0.000000
XC:             -10.879264
Entropy (-ST):   +0.000000
Local:           -0.037774
--------------------------
Free energy:    -14.199645
Extrapolated:   -14.199645

 Band  Eigenvalues  Occupancy
    0    -29.17572    2.00000
    1    -14.06975    2.00000
    2    -11.64495    2.00000
    3    -11.64495    2.00000
    4     -8.94823    2.00000
    5     -2.00079    0.00000
    6     -2.00076    0.00000
    7     -0.22740    0.00000

Fermi level: -5.47451

Gap: 6.947 eV
Transition (v -> c):
  (s=0, k=0, n=4, [0.00, 0.00, 0.00]) -> (s=0, k=0, n=5, [0.00, 0.00, 0.00])

Forces in eV/Ang:
  0 O     0.00000    0.00000    0.01705
  1 C     0.00000    0.00000    0.00655

System changes: positions 

Initializing position-dependent things.

Density initialized from wave functions
        .----------------------------.  
       /|                            |  
      / |                            |  
     /  |                            |  
    /   |                            |  
   /    |                            |  
  /     |                            |  
 *      |                            |  
 |      |                            |  
 |      |                            |  
 |      |          O                 |  
 |      |                            |  
 |      |          C                 |  
 |      |                            |  
 |      |                            |  
 |      .----------------------------.  
 |     /                            /   
 |    /                            /    
 |   /                            /     
 |  /                            /      
 | /                            /       
 |/                            /        
 *----------------------------*         

Positions:
   0 O      6.000000    6.000000    6.571812    ( 0.0000,  0.0000,  0.0000)
   1 C      6.000000    6.000000    5.431334    ( 0.0000,  0.0000,  0.0000)

Unit cell:
           periodic     x           y           z      points  spacing
  1. axis:    no    12.000000    0.000000    0.000000    60     0.2000
  2. axis:    no     0.000000   12.000000    0.000000    60     0.2000
  3. axis:    no     0.000000    0.000000   12.000000    60     0.2000

  Lengths:  12.000000  12.000000  12.000000
  Angles:   90.000000  90.000000  90.000000

Effective grid spacing dv^(1/3) = 0.2000

     iter     time        total  log10-change:
                         energy  eigst   dens
iter:   1 16:08:38   -14.199645  -9.05c
iter:   2 16:08:38   -14.199645  -10.43c -6.19c
iter:   3 16:08:39   -14.199645c -11.41c -6.22c

Converged after 3 iterations.

Dipole moment: (-0.000000, -0.000000, 0.042234) |e|*Ang

Energy contributions relative to reference atoms: (reference = -3068.480417)

Kinetic:        +11.243095
Potential:      -14.525725
External:        +0.000000
XC:             -10.879239
Entropy (-ST):   +0.000000
Local:           -0.037775
--------------------------
Free energy:    -14.199645
Extrapolated:   -14.199645

 Band  Eigenvalues  Occupancy
    0    -29.17571    2.00000
    1    -14.06974    2.00000
    2    -11.64494    2.00000
    3    -11.64494    2.00000
    4     -8.94823    2.00000
    5     -2.00080    0.00000
    6     -2.00079    0.00000
    7     -0.22740    0.00000

Fermi level: -5.47452

Gap: 6.947 eV
Transition (v -> c):
  (s=0, k=0, n=4, [0.00, 0.00, 0.00]) -> (s=0, k=0, n=5, [0.00, 0.00, 0.00])

Forces in eV/Ang:
  0 O     0.00000    0.00000    0.01695
  1 C     0.00000    0.00000    0.00670

System changes: positions 

Initializing position-dependent things.

Density initialized from wave functions
        .----------------------------.  
       /|                            |  
      / |                            |  
     /  |                            |  
    /   |                            |  
   /    |                            |  
  /     |                            |  
 *      |                            |  
 |      |                            |  
 |      |                            |  
 |      |          O                 |  
 |      |                            |  
 |      |          C                 |  
 |      |                            |  
 |      |                            |  
 |      .----------------------------.  
 |     /                            /   
 |    /                            /    
 |   /                            /     
 |  /                            /      
 | /                            /       
 |/                            /        
 *----------------------------*         

Positions:
   0 O      6.000000    6.000000    6.571818    ( 0.0000,  0.0000,  0.0000)
   1 C      6.000000    6.000000    5.431338    ( 0.0000,  0.0000,  0.0000)

Unit cell:
           periodic     x           y           z      points  spacing
  1. axis:    no    12.000000    0.000000    0.000000    60     0.2000
  2. axis:    no     0.000000   12.000000    0.000000    60     0.2000
  3. axis:    no     0.000000    0.000000   12.000000    60     0.2000

  Lengths:  12.000000  12.000000  12.000000
  Angles:   90.000000  90.000000  90.000000

Effective grid spacing dv^(1/3) = 0.2000

     iter     time        total  log10-change:
                         energy  eigst   dens
iter:   1 16:08:39   -14.199645  -9.12c
iter:   2 16:08:40   -14.199645  -10.51c -6.00c
iter:   3 16:08:40   -14.199645c -10.82c -6.06c

Converged after 3 iterations.

Dipole moment: (-0.000000, -0.000000, 0.042233) |e|*Ang

Energy contributions relative to reference atoms: (reference = -3068.480417)

Kinetic:        +11.242965
Potential:      -14.525624
External:        +0.000000
XC:             -10.879212
Entropy (-ST):   +0.000000
Local:           -0.037775
--------------------------
Free energy:    -14.199645
Extrapolated:   -14.199645

 Band  Eigenvalues  Occupancy
    0    -29.17569    2.00000
    1    -14.06974    2.00000
    2    -11.64493    2.00000
    3    -11.64493    2.00000
    4     -8.94824    2.00000
    5     -2.00081    0.00000
    6     -2.00081    0.00000
    7     -0.22740    0.00000

Fermi level: -5.47452

Gap: 6.947 eV
Transition (v -> c):
  (s=0, k=0, n=4, [0.00, 0.00, 0.00]) -> (s=0, k=0, n=5, [0.00, 0.00, 0.00])

Forces in eV/Ang:
  0 O     0.00000    0.00000    0.01684
  1 C     0.00000    0.00000    0.00687

System changes: positions 

Initializing position-dependent things.

Density initialized from wave functions
        .----------------------------.  
       /|                            |  
      / |                            |  
     /  |                            |  
    /   |                            |  
   /    |                            |  
  /     |                            |  
 *      |                            |  
 |      |                            |  
 |      |                            |  
 |      |          O                 |  
 |      |                            |  
 |      |          C                 |  
 |      |                            |  
 |      |                            |  
 |      .----------------------------.  
 |     /                            /   
 |    /                            /    
 |   /                            /     
 |  /                            /      
 | /                            /       
 |/                            /        
 *----------------------------*         

Positions:
   0 O      6.000000    6.000000    6.571823    ( 0.0000,  0.0000,  0.0000)
   1 C      6.000000    6.000000    5.431342    ( 0.0000,  0.0000,  0.0000)

Unit cell:
           periodic     x           y           z      points  spacing
  1. axis:    no    12.000000    0.000000    0.000000    60     0.2000
  2. axis:    no     0.000000   12.000000    0.000000    60     0.2000
  3. axis:    no     0.000000    0.000000   12.000000    60     0.2000

  Lengths:  12.000000  12.000000  12.000000
  Angles:   90.000000  90.000000  90.000000

Effective grid spacing dv^(1/3) = 0.2000

     iter     time        total  log10-change:
                         energy  eigst   dens
iter:   1 16:08:40   -14.199645  -9.13c
iter:   2 16:08:41   -14.199645  -10.56c -5.73c
iter:   3 16:08:41   -14.199645c -10.41c -5.80c

Converged after 3 iterations.

Dipole moment: (-0.000000, -0.000000, 0.042232) |e|*Ang

Energy contributions relative to reference atoms: (reference = -3068.480417)

Kinetic:        +11.242848
Potential:      -14.525533
External:        +0.000000
XC:             -10.879186
Entropy (-ST):   +0.000000
Local:           -0.037775
--------------------------
Free energy:    -14.199645
Extrapolated:   -14.199645

 Band  Eigenvalues  Occupancy
    0    -29.17567    2.00000
    1    -14.06974    2.00000
    2    -11.64492    2.00000
    3    -11.64492    2.00000
    4     -8.94824    2.00000
    5     -2.00082    0.00000
    6     -2.00082    0.00000
    7     -0.22740    0.00000

Fermi level: -5.47453

Gap: 6.947 eV
Transition (v -> c):
  (s=0, k=0, n=4, [0.00, 0.00, 0.00]) -> (s=0, k=0, n=5, [0.00, 0.00, 0.00])

Forces in eV/Ang:
  0 O     0.00000    0.00000    0.01673
  1 C     0.00000    0.00000    0.00699

System changes: positions 

Initializing position-dependent things.

Density initialized from wave functions
        .----------------------------.  
       /|                            |  
      / |                            |  
     /  |                            |  
    /   |                            |  
   /    |                            |  
  /     |                            |  
 *      |                            |  
 |      |                            |  
 |      |                            |  
 |      |          O                 |  
 |      |                            |  
 |      |          C                 |  
 |      |                            |  
 |      |                            |  
 |      .----------------------------.  
 |     /                            /   
 |    /                            /    
 |   /                            /     
 |  /                            /      
 | /                            /       
 |/                            /        
 *----------------------------*         

Positions:
   0 O      6.000000    6.000000    6.571827    ( 0.0000,  0.0000,  0.0000)
   1 C      6.000000    6.000000    5.431346    ( 0.0000,  0.0000,  0.0000)

Unit cell:
           periodic     x           y           z      points  spacing
  1. axis:    no    12.000000    0.000000    0.000000    60     0.2000
  2. axis:    no     0.000000   12.000000    0.000000    60     0.2000
  3. axis:    no     0.000000    0.000000   12.000000    60     0.2000

  Lengths:  12.000000  12.000000  12.000000
  Angles:   90.000000  90.000000  90.000000

Effective grid spacing dv^(1/3) = 0.2000

     iter     time        total  log10-change:
                         energy  eigst   dens
iter:   1 16:08:42   -14.199645  -9.16c
iter:   2 16:08:42   -14.199645  -10.62c -5.67c
iter:   3 16:08:42   -14.199645c -10.33c -5.75c

Converged after 3 iterations.

Dipole moment: (-0.000000, -0.000000, 0.042231) |e|*Ang

Energy contributions relative to reference atoms: (reference = -3068.480417)

Kinetic:        +11.242714
Potential:      -14.525427
External:        +0.000000
XC:             -10.879159
Entropy (-ST):   +0.000000
Local:           -0.037774
--------------------------
Free energy:    -14.199645
Extrapolated:   -14.199645

 Band  Eigenvalues  Occupancy
    0    -29.17566    2.00000
    1    -14.06974    2.00000
    2    -11.64491    2.00000
    3    -11.64491    2.00000
    4     -8.94824    2.00000
    5     -2.00083    0.00000
    6     -2.00083    0.00000
    7     -0.22740    0.00000

Fermi level: -5.47454

Gap: 6.947 eV
Transition (v -> c):
  (s=0, k=0, n=4, [0.00, 0.00, 0.00]) -> (s=0, k=0, n=5, [0.00, 0.00, 0.00])

Forces in eV/Ang:
  0 O     0.00000    0.00000    0.01661
  1 C     0.00000    0.00000    0.00710

System changes: positions 

Initializing position-dependent things.

Density initialized from wave functions
        .----------------------------.  
       /|                            |  
      / |                            |  
     /  |                            |  
    /   |                            |  
   /    |                            |  
  /     |                            |  
 *      |                            |  
 |      |                            |  
 |      |                            |  
 |      |          O                 |  
 |      |                            |  
 |      |          C                 |  
 |      |                            |  
 |      |                            |  
 |      .----------------------------.  
 |     /                            /   
 |    /                            /    
 |   /                            /     
 |  /                            /      
 | /                            /       
 |/                            /        
 *----------------------------*         

Positions:
   0 O      6.000000    6.000000    6.571832    ( 0.0000,  0.0000,  0.0000)
   1 C      6.000000    6.000000    5.431350    ( 0.0000,  0.0000,  0.0000)

Unit cell:
           periodic     x           y           z      points  spacing
  1. axis:    no    12.000000    0.000000    0.000000    60     0.2000
  2. axis:    no     0.000000   12.000000    0.000000    60     0.2000
  3. axis:    no     0.000000    0.000000   12.000000    60     0.2000

  Lengths:  12.000000  12.000000  12.000000
  Angles:   90.000000  90.000000  90.000000

Effective grid spacing dv^(1/3) = 0.2000

     iter     time        total  log10-change:
                         energy  eigst   dens
iter:   1 16:08:43   -14.199645  -9.21c
iter:   2 16:08:43   -14.199645  -10.68c -5.68c
iter:   3 16:08:44   -14.199645c -10.36c -5.76c

Converged after 3 iterations.

Dipole moment: (-0.000000, -0.000000, 0.042230) |e|*Ang

Energy contributions relative to reference atoms: (reference = -3068.480417)

Kinetic:        +11.242593
Potential:      -14.525331
External:        +0.000000
XC:             -10.879134
Entropy (-ST):   +0.000000
Local:           -0.037773
--------------------------
Free energy:    -14.199645
Extrapolated:   -14.199645

 Band  Eigenvalues  Occupancy
    0    -29.17564    2.00000
    1    -14.06974    2.00000
    2    -11.64490    2.00000
    3    -11.64490    2.00000
    4     -8.94824    2.00000
    5     -2.00084    0.00000
    6     -2.00084    0.00000
    7     -0.22740    0.00000

Fermi level: -5.47454

Gap: 6.947 eV
Transition (v -> c):
  (s=0, k=0, n=4, [0.00, 0.00, 0.00]) -> (s=0, k=0, n=5, [0.00, 0.00, 0.00])

Forces in eV/Ang:
  0 O     0.00000    0.00000    0.01651
  1 C     0.00000    0.00000    0.00721

System changes: positions 

Initializing position-dependent things.

Density initialized from wave functions
        .----------------------------.  
       /|                            |  
      / |                            |  
     /  |                            |  
    /   |                            |  
   /    |                            |  
  /     |                            |  
 *      |                            |  
 |      |                            |  
 |      |                            |  
 |      |          O                 |  
 |      |                            |  
 |      |          C                 |  
 |      |                            |  
 |      |                            |  
 |      .----------------------------.  
 |     /                            /   
 |    /                            /    
 |   /                            /     
 |  /                            /      
 | /                            /       
 |/                            /        
 *----------------------------*         

Positions:
   0 O      6.000000    6.000000    6.571836    ( 0.0000,  0.0000,  0.0000)
   1 C      6.000000    6.000000    5.431353    ( 0.0000,  0.0000,  0.0000)

Unit cell:
           periodic     x           y           z      points  spacing
  1. axis:    no    12.000000    0.000000    0.000000    60     0.2000
  2. axis:    no     0.000000   12.000000    0.000000    60     0.2000
  3. axis:    no     0.000000    0.000000   12.000000    60     0.2000

  Lengths:  12.000000  12.000000  12.000000
  Angles:   90.000000  90.000000  90.000000

Effective grid spacing dv^(1/3) = 0.2000

     iter     time        total  log10-change:
                         energy  eigst   dens
iter:   1 16:08:44   -14.199645  -9.26c
iter:   2 16:08:44   -14.199645  -10.73c -5.70c
iter:   3 16:08:45   -14.199645c -10.40c -5.78c

Converged after 3 iterations.

Dipole moment: (-0.000000, -0.000000, 0.042230) |e|*Ang

Energy contributions relative to reference atoms: (reference = -3068.480417)

Kinetic:        +11.242482
Potential:      -14.525243
External:        +0.000000
XC:             -10.879112
Entropy (-ST):   +0.000000
Local:           -0.037772
--------------------------
Free energy:    -14.199645
Extrapolated:   -14.199645

 Band  Eigenvalues  Occupancy
    0    -29.17563    2.00000
    1    -14.06974    2.00000
    2    -11.64490    2.00000
    3    -11.64490    2.00000
    4     -8.94825    2.00000
    5     -2.00085    0.00000
    6     -2.00085    0.00000
    7     -0.22740    0.00000

Fermi level: -5.47455

Gap: 6.947 eV
Transition (v -> c):
  (s=0, k=0, n=4, [0.00, 0.00, 0.00]) -> (s=0, k=0, n=5, [0.00, 0.00, 0.00])

Forces in eV/Ang:
  0 O     0.00000    0.00000    0.01641
  1 C     0.00000    0.00000    0.00730

System changes: positions 

Initializing position-dependent things.

Density initialized from wave functions
        .----------------------------.  
       /|                            |  
      / |                            |  
     /  |                            |  
    /   |                            |  
   /    |                            |  
  /     |                            |  
 *      |                            |  
 |      |                            |  
 |      |                            |  
 |      |          O                 |  
 |      |                            |  
 |      |          C                 |  
 |      |                            |  
 |      |                            |  
 |      .----------------------------.  
 |     /                            /   
 |    /                            /    
 |   /                            /     
 |  /                            /      
 | /                            /       
 |/                            /        
 *----------------------------*         

Positions:
   0 O      6.000000    6.000000    6.571840    ( 0.0000,  0.0000,  0.0000)
   1 C      6.000000    6.000000    5.431356    ( 0.0000,  0.0000,  0.0000)

Unit cell:
           periodic     x           y           z      points  spacing
  1. axis:    no    12.000000    0.000000    0.000000    60     0.2000
  2. axis:    no     0.000000   12.000000    0.000000    60     0.2000
  3. axis:    no     0.000000    0.000000   12.000000    60     0.2000

  Lengths:  12.000000  12.000000  12.000000
  Angles:   90.000000  90.000000  90.000000

Effective grid spacing dv^(1/3) = 0.2000

     iter     time        total  log10-change:
                         energy  eigst   dens
iter:   1 16:08:45   -14.199645  -9.31c
iter:   2 16:08:46   -14.199645  -10.77c -5.73c
iter:   3 16:08:46   -14.199645c -10.45c -5.81c

Converged after 3 iterations.

Dipole moment: (-0.000000, -0.000000, 0.042229) |e|*Ang

Energy contributions relative to reference atoms: (reference = -3068.480417)

Kinetic:        +11.242384
Potential:      -14.525166
External:        +0.000000
XC:             -10.879093
Entropy (-ST):   +0.000000
Local:           -0.037772
--------------------------
Free energy:    -14.199645
Extrapolated:   -14.199645

 Band  Eigenvalues  Occupancy
    0    -29.17562    2.00000
    1    -14.06974    2.00000
    2    -11.64489    2.00000
    3    -11.64489    2.00000
    4     -8.94825    2.00000
    5     -2.00085    0.00000
    6     -2.00085    0.00000
    7     -0.22740    0.00000

Fermi level: -5.47455

Gap: 6.947 eV
Transition (v -> c):
  (s=0, k=0, n=4, [0.00, 0.00, 0.00]) -> (s=0, k=0, n=5, [0.00, 0.00, 0.00])

Forces in eV/Ang:
  0 O     0.00000    0.00000    0.01632
  1 C     0.00000    0.00000    0.00738

System changes: positions 

Initializing position-dependent things.

Density initialized from wave functions
        .----------------------------.  
       /|                            |  
      / |                            |  
     /  |                            |  
    /   |                            |  
   /    |                            |  
  /     |                            |  
 *      |                            |  
 |      |                            |  
 |      |                            |  
 |      |          O                 |  
 |      |                            |  
 |      |          C                 |  
 |      |                            |  
 |      |                            |  
 |      .----------------------------.  
 |     /                            /   
 |    /                            /    
 |   /                            /     
 |  /                            /      
 | /                            /       
 |/                            /        
 *----------------------------*         

Positions:
   0 O      6.000000    6.000000    6.571843    ( 0.0000,  0.0000,  0.0000)
   1 C      6.000000    6.000000    5.431359    ( 0.0000,  0.0000,  0.0000)

Unit cell:
           periodic     x           y           z      points  spacing
  1. axis:    no    12.000000    0.000000    0.000000    60     0.2000
  2. axis:    no     0.000000   12.000000    0.000000    60     0.2000
  3. axis:    no     0.000000    0.000000   12.000000    60     0.2000

  Lengths:  12.000000  12.000000  12.000000
  Angles:   90.000000  90.000000  90.000000

Effective grid spacing dv^(1/3) = 0.2000

     iter     time        total  log10-change:
                         energy  eigst   dens
iter:   1 16:08:46   -14.199646  -9.35c
iter:   2 16:08:47   -14.199646  -10.81c -5.75c
iter:   3 16:08:47   -14.199646c -10.49c -5.83c

Converged after 3 iterations.

Dipole moment: (-0.000000, -0.000000, 0.042229) |e|*Ang

Energy contributions relative to reference atoms: (reference = -3068.480417)

Kinetic:        +11.242296
Potential:      -14.525096
External:        +0.000000
XC:             -10.879075
Entropy (-ST):   +0.000000
Local:           -0.037771
--------------------------
Free energy:    -14.199646
Extrapolated:   -14.199646

 Band  Eigenvalues  Occupancy
    0    -29.17561    2.00000
    1    -14.06974    2.00000
    2    -11.64488    2.00000
    3    -11.64488    2.00000
    4     -8.94825    2.00000
    5     -2.00086    0.00000
    6     -2.00086    0.00000
    7     -0.22740    0.00000

Fermi level: -5.47455

Gap: 6.947 eV
Transition (v -> c):
  (s=0, k=0, n=4, [0.00, 0.00, 0.00]) -> (s=0, k=0, n=5, [0.00, 0.00, 0.00])

Forces in eV/Ang:
  0 O     0.00000    0.00000    0.01625
  1 C     0.00000    0.00000    0.00746

System changes: positions 

Initializing position-dependent things.

Density initialized from wave functions
        .----------------------------.  
       /|                            |  
      / |                            |  
     /  |                            |  
    /   |                            |  
   /    |                            |  
  /     |                            |  
 *      |                            |  
 |      |                            |  
 |      |                            |  
 |      |          O                 |  
 |      |                            |  
 |      |          C                 |  
 |      |                            |  
 |      |                            |  
 |      .----------------------------.  
 |     /                            /   
 |    /                            /    
 |   /                            /     
 |  /                            /      
 | /                            /       
 |/                            /        
 *----------------------------*         

Positions:
   0 O      6.000000    6.000000    6.571847    ( 0.0000,  0.0000,  0.0000)
   1 C      6.000000    6.000000    5.431362    ( 0.0000,  0.0000,  0.0000)

Unit cell:
           periodic     x           y           z      points  spacing
  1. axis:    no    12.000000    0.000000    0.000000    60     0.2000
  2. axis:    no     0.000000   12.000000    0.000000    60     0.2000
  3. axis:    no     0.000000    0.000000   12.000000    60     0.2000

  Lengths:  12.000000  12.000000  12.000000
  Angles:   90.000000  90.000000  90.000000

Effective grid spacing dv^(1/3) = 0.2000

     iter     time        total  log10-change:
                         energy  eigst   dens
iter:   1 16:08:48   -14.199646  -9.38c
iter:   2 16:08:48   -14.199646  -10.85c -5.77c
iter:   3 16:08:48   -14.199646c -10.53c -5.84c

Converged after 3 iterations.

Dipole moment: (-0.000000, -0.000000, 0.042229) |e|*Ang

Energy contributions relative to reference atoms: (reference = -3068.480417)

Kinetic:        +11.242218
Potential:      -14.525034
External:        +0.000000
XC:             -10.879059
Entropy (-ST):   +0.000000
Local:           -0.037770
--------------------------
Free energy:    -14.199646
Extrapolated:   -14.199646

 Band  Eigenvalues  Occupancy
    0    -29.17561    2.00000
    1    -14.06974    2.00000
    2    -11.64488    2.00000
    3    -11.64488    2.00000
    4     -8.94825    2.00000
    5     -2.00086    0.00000
    6     -2.00086    0.00000
    7     -0.22740    0.00000

Fermi level: -5.47456

Gap: 6.947 eV
Transition (v -> c):
  (s=0, k=0, n=4, [0.00, 0.00, 0.00]) -> (s=0, k=0, n=5, [0.00, 0.00, 0.00])

Forces in eV/Ang:
  0 O     0.00000    0.00000    0.01618
  1 C     0.00000    0.00000    0.00752

System changes: positions 

Initializing position-dependent things.

Density initialized from wave functions
        .----------------------------.  
       /|                            |  
      / |                            |  
     /  |                            |  
    /   |                            |  
   /    |                            |  
  /     |                            |  
 *      |                            |  
 |      |                            |  
 |      |                            |  
 |      |          O                 |  
 |      |                            |  
 |      |          C                 |  
 |      |                            |  
 |      |                            |  
 |      .----------------------------.  
 |     /                            /   
 |    /                            /    
 |   /                            /     
 |  /                            /      
 | /                            /       
 |/                            /        
 *----------------------------*         

Positions:
   0 O      6.000000    6.000000    6.571850    ( 0.0000,  0.0000,  0.0000)
   1 C      6.000000    6.000000    5.431365    ( 0.0000,  0.0000,  0.0000)

Unit cell:
           periodic     x           y           z      points  spacing
  1. axis:    no    12.000000    0.000000    0.000000    60     0.2000
  2. axis:    no     0.000000   12.000000    0.000000    60     0.2000
  3. axis:    no     0.000000    0.000000   12.000000    60     0.2000

  Lengths:  12.000000  12.000000  12.000000
  Angles:   90.000000  90.000000  90.000000

Effective grid spacing dv^(1/3) = 0.2000

     iter     time        total  log10-change:
                         energy  eigst   dens
iter:   1 16:08:49   -14.199646  -9.42c
iter:   2 16:08:49   -14.199646  -10.88c -5.78c
iter:   3 16:08:49   -14.199646c -10.57c -5.86c

Converged after 3 iterations.

Dipole moment: (-0.000000, -0.000000, 0.042228) |e|*Ang

Energy contributions relative to reference atoms: (reference = -3068.480417)

Kinetic:        +11.242147
Potential:      -14.524978
External:        +0.000000
XC:             -10.879045
Entropy (-ST):   +0.000000
Local:           -0.037770
--------------------------
Free energy:    -14.199646
Extrapolated:   -14.199646

 Band  Eigenvalues  Occupancy
    0    -29.17560    2.00000
    1    -14.06974    2.00000
    2    -11.64488    2.00000
    3    -11.64488    2.00000
    4     -8.94825    2.00000
    5     -2.00087    0.00000
    6     -2.00087    0.00000
    7     -0.22740    0.00000

Fermi level: -5.47456

Gap: 6.947 eV
Transition (v -> c):
  (s=0, k=0, n=4, [0.00, 0.00, 0.00]) -> (s=0, k=0, n=5, [0.00, 0.00, 0.00])

Forces in eV/Ang:
  0 O     0.00000    0.00000    0.01612
  1 C     0.00000    0.00000    0.00758

System changes: positions 

Initializing position-dependent things.

Density initialized from wave functions
        .----------------------------.  
       /|                            |  
      / |                            |  
     /  |                            |  
    /   |                            |  
   /    |                            |  
  /     |                            |  
 *      |                            |  
 |      |                            |  
 |      |                            |  
 |      |          O                 |  
 |      |                            |  
 |      |          C                 |  
 |      |                            |  
 |      |                            |  
 |      .----------------------------.  
 |     /                            /   
 |    /                            /    
 |   /                            /     
 |  /                            /      
 | /                            /       
 |/                            /        
 *----------------------------*         

Positions:
   0 O      6.000000    6.000000    6.571854    ( 0.0000,  0.0000,  0.0000)
   1 C      6.000000    6.000000    5.431368    ( 0.0000,  0.0000,  0.0000)

Unit cell:
           periodic     x           y           z      points  spacing
  1. axis:    no    12.000000    0.000000    0.000000    60     0.2000
  2. axis:    no     0.000000   12.000000    0.000000    60     0.2000
  3. axis:    no     0.000000    0.000000   12.000000    60     0.2000

  Lengths:  12.000000  12.000000  12.000000
  Angles:   90.000000  90.000000  90.000000

Effective grid spacing dv^(1/3) = 0.2000

     iter     time        total  log10-change:
                         energy  eigst   dens
iter:   1 16:08:50   -14.199646  -9.45c
iter:   2 16:08:50   -14.199646  -10.91c -5.80c
iter:   3 16:08:51   -14.199646c -10.60c -5.88c

Converged after 3 iterations.

Dipole moment: (-0.000000, -0.000000, 0.042228) |e|*Ang

Energy contributions relative to reference atoms: (reference = -3068.480417)

Kinetic:        +11.242084
Potential:      -14.524928
External:        +0.000000
XC:             -10.879032
Entropy (-ST):   +0.000000
Local:           -0.037769
--------------------------
Free energy:    -14.199646
Extrapolated:   -14.199646

 Band  Eigenvalues  Occupancy
    0    -29.17559    2.00000
    1    -14.06974    2.00000
    2    -11.64487    2.00000
    3    -11.64487    2.00000
    4     -8.94825    2.00000
    5     -2.00087    0.00000
    6     -2.00087    0.00000
    7     -0.22740    0.00000

Fermi level: -5.47456

Gap: 6.947 eV
Transition (v -> c):
  (s=0, k=0, n=4, [0.00, 0.00, 0.00]) -> (s=0, k=0, n=5, [0.00, 0.00, 0.00])

Forces in eV/Ang:
  0 O     0.00000    0.00000    0.01606
  1 C     0.00000    0.00000    0.00763

System changes: positions 

Initializing position-dependent things.

Density initialized from wave functions
        .----------------------------.  
       /|                            |  
      / |                            |  
     /  |                            |  
    /   |                            |  
   /    |                            |  
  /     |                            |  
 *      |                            |  
 |      |                            |  
 |      |                            |  
 |      |          O                 |  
 |      |                            |  
 |      |          C                 |  
 |      |                            |  
 |      |                            |  
 |      .----------------------------.  
 |     /                            /   
 |    /                            /    
 |   /                            /     
 |  /                            /      
 | /                            /       
 |/                            /        
 *----------------------------*         

Positions:
   0 O      6.000000    6.000000    6.571857    ( 0.0000,  0.0000,  0.0000)
   1 C      6.000000    6.000000    5.431370    ( 0.0000,  0.0000,  0.0000)

Unit cell:
           periodic     x           y           z      points  spacing
  1. axis:    no    12.000000    0.000000    0.000000    60     0.2000
  2. axis:    no     0.000000   12.000000    0.000000    60     0.2000
  3. axis:    no     0.000000    0.000000   12.000000    60     0.2000

  Lengths:  12.000000  12.000000  12.000000
  Angles:   90.000000  90.000000  90.000000

Effective grid spacing dv^(1/3) = 0.2000

     iter     time        total  log10-change:
                         energy  eigst   dens
iter:   1 16:08:51   -14.199646  -9.47c
iter:   2 16:08:51   -14.199646  -10.93c -5.82c
iter:   3 16:08:52   -14.199646c -10.63c -5.89c

Converged after 3 iterations.

Dipole moment: (-0.000000, -0.000000, 0.042228) |e|*Ang

Energy contributions relative to reference atoms: (reference = -3068.480417)

Kinetic:        +11.242028
Potential:      -14.524883
External:        +0.000000
XC:             -10.879021
Entropy (-ST):   +0.000000
Local:           -0.037769
--------------------------
Free energy:    -14.199646
Extrapolated:   -14.199646

 Band  Eigenvalues  Occupancy
    0    -29.17559    2.00000
    1    -14.06974    2.00000
    2    -11.64487    2.00000
    3    -11.64487    2.00000
    4     -8.94825    2.00000
    5     -2.00088    0.00000
    6     -2.00088    0.00000
    7     -0.22740    0.00000

Fermi level: -5.47456

Gap: 6.947 eV
Transition (v -> c):
  (s=0, k=0, n=4, [0.00, 0.00, 0.00]) -> (s=0, k=0, n=5, [0.00, 0.00, 0.00])

Forces in eV/Ang:
  0 O     0.00000    0.00000    0.01601
  1 C     0.00000    0.00000    0.00768

System changes: positions 

Initializing position-dependent things.

Density initialized from wave functions
        .----------------------------.  
       /|                            |  
      / |                            |  
     /  |                            |  
    /   |                            |  
   /    |                            |  
  /     |                            |  
 *      |                            |  
 |      |                            |  
 |      |                            |  
 |      |          O                 |  
 |      |                            |  
 |      |          C                 |  
 |      |                            |  
 |      |                            |  
 |      .----------------------------.  
 |     /                            /   
 |    /                            /    
 |   /                            /     
 |  /                            /      
 | /                            /       
 |/                            /        
 *----------------------------*         

Positions:
   0 O      6.000000    6.000000    6.571860    ( 0.0000,  0.0000,  0.0000)
   1 C      6.000000    6.000000    5.431373    ( 0.0000,  0.0000,  0.0000)

Unit cell:
           periodic     x           y           z      points  spacing
  1. axis:    no    12.000000    0.000000    0.000000    60     0.2000
  2. axis:    no     0.000000   12.000000    0.000000    60     0.2000
  3. axis:    no     0.000000    0.000000   12.000000    60     0.2000

  Lengths:  12.000000  12.000000  12.000000
  Angles:   90.000000  90.000000  90.000000

Effective grid spacing dv^(1/3) = 0.2000

     iter     time        total  log10-change:
                         energy  eigst   dens
iter:   1 16:08:52   -14.199646  -9.49c
iter:   2 16:08:53   -14.199646  -10.95c -5.83c
iter:   3 16:08:53   -14.199646c -10.65c -5.90c

Converged after 3 iterations.

Dipole moment: (-0.000000, -0.000000, 0.042227) |e|*Ang

Energy contributions relative to reference atoms: (reference = -3068.480417)

Kinetic:        +11.241976
Potential:      -14.524843
External:        +0.000000
XC:             -10.879011
Entropy (-ST):   +0.000000
Local:           -0.037769
--------------------------
Free energy:    -14.199646
Extrapolated:   -14.199646

 Band  Eigenvalues  Occupancy
    0    -29.17558    2.00000
    1    -14.06974    2.00000
    2    -11.64486    2.00000
    3    -11.64486    2.00000
    4     -8.94825    2.00000
    5     -2.00088    0.00000
    6     -2.00088    0.00000
    7     -0.22740    0.00000

Fermi level: -5.47457

Gap: 6.947 eV
Transition (v -> c):
  (s=0, k=0, n=4, [0.00, 0.00, 0.00]) -> (s=0, k=0, n=5, [0.00, 0.00, 0.00])

Forces in eV/Ang:
  0 O     0.00000    0.00000    0.01596
  1 C     0.00000    0.00000    0.00773

System changes: positions 

Initializing position-dependent things.

Density initialized from wave functions
        .----------------------------.  
       /|                            |  
      / |                            |  
     /  |                            |  
    /   |                            |  
   /    |                            |  
  /     |                            |  
 *      |                            |  
 |      |                            |  
 |      |                            |  
 |      |          O                 |  
 |      |                            |  
 |      |          C                 |  
 |      |                            |  
 |      |                            |  
 |      .----------------------------.  
 |     /                            /   
 |    /                            /    
 |   /                            /     
 |  /                            /      
 | /                            /       
 |/                            /        
 *----------------------------*         

Positions:
   0 O      6.000000    6.000000    6.571863    ( 0.0000,  0.0000,  0.0000)
   1 C      6.000000    6.000000    5.431376    ( 0.0000,  0.0000,  0.0000)

Unit cell:
           periodic     x           y           z      points  spacing
  1. axis:    no    12.000000    0.000000    0.000000    60     0.2000
  2. axis:    no     0.000000   12.000000    0.000000    60     0.2000
  3. axis:    no     0.000000    0.000000   12.000000    60     0.2000

  Lengths:  12.000000  12.000000  12.000000
  Angles:   90.000000  90.000000  90.000000

Effective grid spacing dv^(1/3) = 0.2000

     iter     time        total  log10-change:
                         energy  eigst   dens
iter:   1 16:08:54   -14.199646  -9.51c
iter:   2 16:08:54   -14.199646  -10.97c -5.84c
iter:   3 16:08:54   -14.199646c -10.67c -5.91c

Converged after 3 iterations.

Dipole moment: (-0.000000, -0.000000, 0.042227) |e|*Ang

Energy contributions relative to reference atoms: (reference = -3068.480417)

Kinetic:        +11.241930
Potential:      -14.524806
External:        +0.000000
XC:             -10.879001
Entropy (-ST):   +0.000000
Local:           -0.037769
--------------------------
Free energy:    -14.199646
Extrapolated:   -14.199646

 Band  Eigenvalues  Occupancy
    0    -29.17558    2.00000
    1    -14.06974    2.00000
    2    -11.64486    2.00000
    3    -11.64486    2.00000
    4     -8.94825    2.00000
    5     -2.00088    0.00000
    6     -2.00088    0.00000
    7     -0.22740    0.00000

Fermi level: -5.47457

Gap: 6.947 eV
Transition (v -> c):
  (s=0, k=0, n=4, [0.00, 0.00, 0.00]) -> (s=0, k=0, n=5, [0.00, 0.00, 0.00])

Forces in eV/Ang:
  0 O     0.00000    0.00000    0.01592
  1 C     0.00000    0.00000    0.00777

System changes: positions 

Initializing position-dependent things.

Density initialized from wave functions
        .----------------------------.  
       /|                            |  
      / |                            |  
     /  |                            |  
    /   |                            |  
   /    |                            |  
  /     |                            |  
 *      |                            |  
 |      |                            |  
 |      |                            |  
 |      |          O                 |  
 |      |                            |  
 |      |          C                 |  
 |      |                            |  
 |      |                            |  
 |      .----------------------------.  
 |     /                            /   
 |    /                            /    
 |   /                            /     
 |  /                            /      
 | /                            /       
 |/                            /        
 *----------------------------*         

Positions:
   0 O      6.000000    6.000000    6.571866    ( 0.0000,  0.0000,  0.0000)
   1 C      6.000000    6.000000    5.431378    ( 0.0000,  0.0000,  0.0000)

Unit cell:
           periodic     x           y           z      points  spacing
  1. axis:    no    12.000000    0.000000    0.000000    60     0.2000
  2. axis:    no     0.000000   12.000000    0.000000    60     0.2000
  3. axis:    no     0.000000    0.000000   12.000000    60     0.2000

  Lengths:  12.000000  12.000000  12.000000
  Angles:   90.000000  90.000000  90.000000

Effective grid spacing dv^(1/3) = 0.2000

     iter     time        total  log10-change:
                         energy  eigst   dens
iter:   1 16:08:55   -14.199646  -9.53c
iter:   2 16:08:55   -14.199646  -10.99c -5.84c
iter:   3 16:08:55   -14.199646c -10.68c -5.92c

Converged after 3 iterations.

Dipole moment: (-0.000000, -0.000000, 0.042227) |e|*Ang

Energy contributions relative to reference atoms: (reference = -3068.480417)

Kinetic:        +11.241888
Potential:      -14.524773
External:        +0.000000
XC:             -10.878993
Entropy (-ST):   +0.000000
Local:           -0.037768
--------------------------
Free energy:    -14.199646
Extrapolated:   -14.199646

 Band  Eigenvalues  Occupancy
    0    -29.17557    2.00000
    1    -14.06974    2.00000
    2    -11.64486    2.00000
    3    -11.64486    2.00000
    4     -8.94826    2.00000
    5     -2.00089    0.00000
    6     -2.00089    0.00000
    7     -0.22740    0.00000

Fermi level: -5.47457

Gap: 6.947 eV
Transition (v -> c):
  (s=0, k=0, n=4, [0.00, 0.00, 0.00]) -> (s=0, k=0, n=5, [0.00, 0.00, 0.00])

Forces in eV/Ang:
  0 O     0.00000    0.00000    0.01588
  1 C     0.00000    0.00000    0.00780

System changes: positions 

Initializing position-dependent things.

Density initialized from wave functions
        .----------------------------.  
       /|                            |  
      / |                            |  
     /  |                            |  
    /   |                            |  
   /    |                            |  
  /     |                            |  
 *      |                            |  
 |      |                            |  
 |      |                            |  
 |      |          O                 |  
 |      |                            |  
 |      |          C                 |  
 |      |                            |  
 |      |                            |  
 |      .----------------------------.  
 |     /                            /   
 |    /                            /    
 |   /                            /     
 |  /                            /      
 | /                            /       
 |/                            /        
 *----------------------------*         

Positions:
   0 O      6.000000    6.000000    6.571869    ( 0.0000,  0.0000,  0.0000)
   1 C      6.000000    6.000000    5.431381    ( 0.0000,  0.0000,  0.0000)

Unit cell:
           periodic     x           y           z      points  spacing
  1. axis:    no    12.000000    0.000000    0.000000    60     0.2000
  2. axis:    no     0.000000   12.000000    0.000000    60     0.2000
  3. axis:    no     0.000000    0.000000   12.000000    60     0.2000

  Lengths:  12.000000  12.000000  12.000000
  Angles:   90.000000  90.000000  90.000000

Effective grid spacing dv^(1/3) = 0.2000

     iter     time        total  log10-change:
                         energy  eigst   dens
iter:   1 16:08:56   -14.199646  -9.54c
iter:   2 16:08:56   -14.199646  -11.00c -5.85c
iter:   3 16:08:57   -14.199646c -10.70c -5.93c

Converged after 3 iterations.

Dipole moment: (-0.000000, -0.000000, 0.042227) |e|*Ang

Energy contributions relative to reference atoms: (reference = -3068.480417)

Kinetic:        +11.241849
Potential:      -14.524742
External:        +0.000000
XC:             -10.878985
Entropy (-ST):   +0.000000
Local:           -0.037768
--------------------------
Free energy:    -14.199646
Extrapolated:   -14.199646

 Band  Eigenvalues  Occupancy
    0    -29.17557    2.00000
    1    -14.06974    2.00000
    2    -11.64486    2.00000
    3    -11.64486    2.00000
    4     -8.94826    2.00000
    5     -2.00089    0.00000
    6     -2.00089    0.00000
    7     -0.22740    0.00000

Fermi level: -5.47457

Gap: 6.947 eV
Transition (v -> c):
  (s=0, k=0, n=4, [0.00, 0.00, 0.00]) -> (s=0, k=0, n=5, [0.00, 0.00, 0.00])

Forces in eV/Ang:
  0 O     0.00000    0.00000    0.01584
  1 C     0.00000    0.00000    0.00784

System changes: positions 

Initializing position-dependent things.

Density initialized from wave functions
        .----------------------------.  
       /|                            |  
      / |                            |  
     /  |                            |  
    /   |                            |  
   /    |                            |  
  /     |                            |  
 *      |                            |  
 |      |                            |  
 |      |                            |  
 |      |          O                 |  
 |      |                            |  
 |      |          C                 |  
 |      |                            |  
 |      |                            |  
 |      .----------------------------.  
 |     /                            /   
 |    /                            /    
 |   /                            /     
 |  /                            /      
 | /                            /       
 |/                            /        
 *----------------------------*         

Positions:
   0 O      6.000000    6.000000    6.571871    ( 0.0000,  0.0000,  0.0000)
   1 C      6.000000    6.000000    5.431383    ( 0.0000,  0.0000,  0.0000)

Unit cell:
           periodic     x           y           z      points  spacing
  1. axis:    no    12.000000    0.000000    0.000000    60     0.2000
  2. axis:    no     0.000000   12.000000    0.000000    60     0.2000
  3. axis:    no     0.000000    0.000000   12.000000    60     0.2000

  Lengths:  12.000000  12.000000  12.000000
  Angles:   90.000000  90.000000  90.000000

Effective grid spacing dv^(1/3) = 0.2000

     iter     time        total  log10-change:
                         energy  eigst   dens
iter:   1 16:08:57   -14.199646  -9.56c
iter:   2 16:08:57   -14.199646  -11.01c -5.86c
iter:   3 16:08:58   -14.199646c -10.71c -5.93c

Converged after 3 iterations.

Dipole moment: (-0.000000, -0.000000, 0.042226) |e|*Ang

Energy contributions relative to reference atoms: (reference = -3068.480417)

Kinetic:        +11.241814
Potential:      -14.524715
External:        +0.000000
XC:             -10.878978
Entropy (-ST):   +0.000000
Local:           -0.037768
--------------------------
Free energy:    -14.199646
Extrapolated:   -14.199646

 Band  Eigenvalues  Occupancy
    0    -29.17557    2.00000
    1    -14.06974    2.00000
    2    -11.64485    2.00000
    3    -11.64485    2.00000
    4     -8.94826    2.00000
    5     -2.00089    0.00000
    6     -2.00089    0.00000
    7     -0.22740    0.00000

Fermi level: -5.47457

Gap: 6.947 eV
Transition (v -> c):
  (s=0, k=0, n=4, [0.00, 0.00, 0.00]) -> (s=0, k=0, n=5, [0.00, 0.00, 0.00])

Forces in eV/Ang:
  0 O     0.00000    0.00000    0.01581
  1 C     0.00000    0.00000    0.00787

System changes: positions 

Initializing position-dependent things.

Density initialized from wave functions
        .----------------------------.  
       /|                            |  
      / |                            |  
     /  |                            |  
    /   |                            |  
   /    |                            |  
  /     |                            |  
 *      |                            |  
 |      |                            |  
 |      |                            |  
 |      |          O                 |  
 |      |                            |  
 |      |          C                 |  
 |      |                            |  
 |      |                            |  
 |      .----------------------------.  
 |     /                            /   
 |    /                            /    
 |   /                            /     
 |  /                            /      
 | /                            /       
 |/                            /        
 *----------------------------*         

Positions:
   0 O      6.000000    6.000000    6.571874    ( 0.0000,  0.0000,  0.0000)
   1 C      6.000000    6.000000    5.431386    ( 0.0000,  0.0000,  0.0000)

Unit cell:
           periodic     x           y           z      points  spacing
  1. axis:    no    12.000000    0.000000    0.000000    60     0.2000
  2. axis:    no     0.000000   12.000000    0.000000    60     0.2000
  3. axis:    no     0.000000    0.000000   12.000000    60     0.2000

  Lengths:  12.000000  12.000000  12.000000
  Angles:   90.000000  90.000000  90.000000

Effective grid spacing dv^(1/3) = 0.2000

     iter     time        total  log10-change:
                         energy  eigst   dens
iter:   1 16:08:58   -14.199646  -9.57c
iter:   2 16:08:59   -14.199646  -11.02c -5.86c
iter:   3 16:08:59   -14.199646c -10.72c -5.94c

Converged after 3 iterations.

Dipole moment: (-0.000000, -0.000000, 0.042226) |e|*Ang

Energy contributions relative to reference atoms: (reference = -3068.480417)

Kinetic:        +11.241782
Potential:      -14.524689
External:        +0.000000
XC:             -10.878971
Entropy (-ST):   +0.000000
Local:           -0.037768
--------------------------
Free energy:    -14.199646
Extrapolated:   -14.199646

 Band  Eigenvalues  Occupancy
    0    -29.17556    2.00000
    1    -14.06975    2.00000
    2    -11.64485    2.00000
    3    -11.64485    2.00000
    4     -8.94826    2.00000
    5     -2.00089    0.00000
    6     -2.00089    0.00000
    7     -0.22740    0.00000

Fermi level: -5.47458

Gap: 6.947 eV
Transition (v -> c):
  (s=0, k=0, n=4, [0.00, 0.00, 0.00]) -> (s=0, k=0, n=5, [0.00, 0.00, 0.00])

Forces in eV/Ang:
  0 O     0.00000    0.00000    0.01578
  1 C     0.00000    0.00000    0.00789

Timing:                                      incl.     excl.
-------------------------------------------------------------------
Density initialized from wave functions:     3.753     1.201   1.8% ||
 Symmetrize density:                         2.553     2.553   3.8% |-|
Forces:                                      2.012     2.012   3.0% ||
Hamiltonian:                                 4.425     0.103   0.2% |
 Atomic:                                     0.006     0.006   0.0% |
  XC Correction:                             0.000     0.000   0.0% |
 Calculate atomic Hamiltonians:              0.281     0.281   0.4% |
 Communicate:                                0.806     0.806   1.2% |
 Initialize Hamiltonian:                     0.001     0.001   0.0% |
 Poisson:                                    0.042     0.042   0.1% |
 XC 3D grid:                                 3.187     3.187   4.8% |-|
LCAO initialization:                         0.095     0.068   0.1% |
 LCAO eigensolver:                           0.002     0.000   0.0% |
  Calculate projections:                     0.000     0.000   0.0% |
  DenseAtomicCorrection:                     0.000     0.000   0.0% |
  Distribute overlap matrix:                 0.000     0.000   0.0% |
  Orbital Layouts:                           0.000     0.000   0.0% |
  Potential matrix:                          0.001     0.001   0.0% |
 LCAO to grid:                               0.020     0.020   0.0% |
 Set positions (LCAO WFS):                   0.005     0.002   0.0% |
  Basic WFS set positions:                   0.001     0.001   0.0% |
  Basis functions set positions:             0.000     0.000   0.0% |
  P tci:                                     0.000     0.000   0.0% |
  ST tci:                                    0.001     0.001   0.0% |
  mktci:                                     0.001     0.001   0.0% |
PWDescriptor:                                0.676     0.676   1.0% |
Redistribute:                                0.011     0.011   0.0% |
SCF-cycle:                                  51.415     0.090   0.1% |
 Davidson:                                   8.314     1.000   1.5% ||
  Apply H:                                   1.665     1.633   2.4% ||
   HMM T:                                    0.033     0.033   0.0% |
  Subspace diag:                             1.858     0.014   0.0% |
   calc_h_matrix:                            1.752     0.076   0.1% |
    Apply H:                                 1.676     1.639   2.4% ||
     HMM T:                                  0.038     0.038   0.1% |
   diagonalize:                              0.044     0.044   0.1% |
   rotate_psi:                               0.048     0.048   0.1% |
  calc. matrices:                            3.648     0.408   0.6% |
   Apply H:                                  3.241     3.172   4.7% |-|
    HMM T:                                   0.069     0.069   0.1% |
  diagonalize:                               0.076     0.076   0.1% |
  rotate_psi:                                0.066     0.066   0.1% |
 Density:                                   20.366     0.003   0.0% |
  Atomic density matrices:                   0.094     0.094   0.1% |
  Mix:                                       5.768     5.768   8.6% |--|
  Multipole moments:                         0.019     0.019   0.0% |
  Pseudo density:                           14.483     0.887   1.3% ||
   Symmetrize density:                      13.596    13.596  20.3% |-------|
 Hamiltonian:                               22.600     0.520   0.8% |
  Atomic:                                    0.033     0.032   0.0% |
   XC Correction:                            0.001     0.001   0.0% |
  Calculate atomic Hamiltonians:             1.414     1.414   2.1% ||
  Communicate:                               4.101     4.101   6.1% |-|
  Poisson:                                   0.220     0.220   0.3% |
  XC 3D grid:                               16.313    16.313  24.4% |---------|
 Orthonormalize:                             0.045     0.003   0.0% |
  calc_s_matrix:                             0.009     0.009   0.0% |
  inverse-cholesky:                          0.004     0.004   0.0% |
  projections:                               0.026     0.026   0.0% |
  rotate_psi_s:                              0.004     0.004   0.0% |
Set symmetry:                                0.003     0.003   0.0% |
Other:                                       4.546     4.546   6.8% |--|
-------------------------------------------------------------------
Total:                                                66.936 100.0%

Memory usage: 375.55 MiB
Date: Tue Mar  7 16:08:59 2023
