
  ___ ___ ___ _ _ _  
 |   |   |_  | | | | 
 | | | | | . | | | | 
 |__ |  _|___|_____|  22.8.0
 |___|_|             

User:   gotols@vera1
Date:   Thu Feb 16 10:32:24 2023
Arch:   x86_64
Pid:    482580
CWD:    /cephyr/users/gotols/Vera/TIF320-Computational-materials-and-molecular-physics-Assignments
Python: 3.10.4
gpaw:   /apps/Arch/software/GPAW/22.8.0-foss-2022a/lib/python3.10/site-packages/gpaw
_gpaw:  /apps/Arch/software/GPAW/22.8.0-foss-2022a/lib/python3.10/site-packages/
        _gpaw.cpython-310-x86_64-linux-gnu.so
ase:    /apps/Arch/software/ASE/3.22.1-foss-2022a/lib/python3.10/site-packages/ase (version 3.22.1)
numpy:  /apps/Arch/software/SciPy-bundle/2022.05-foss-2022a/lib/python3.10/site-packages/numpy (version 1.22.3)
scipy:  /apps/Arch/software/SciPy-bundle/2022.05-foss-2022a/lib/python3.10/site-packages/scipy (version 1.8.1)
libxc:  5.2.3
units:  Angstrom and eV
cores: 1
OpenMP: False
OMP_NUM_THREADS: 1

Input parameters:
  kpts: {gamma: True}
  mode: {ecut: 450.00000000000006,
         name: pw}

System changes: positions, numbers, cell, pbc, initial_charges, initial_magmoms 

Initialize ...

species:
  O:
    name: Oxygen
    id: 9b9d51c344dea68c822856295a461509
    Z: 8.0
    valence: 6
    core: 2
    charge: 0.0
    file: /apps/Common/software/GPAW-setups/0.9.20000/O.LDA.gz
    compensation charges: {type: gauss,
                           rc: 0.21,
                           lmax: 2}
    cutoffs: {filter: 1.17,
              core: 0.83}
    valence states:
      #              energy  rcut
      - 2s(2.00)   -23.752   0.688
      - 2p(4.00)    -9.195   0.598
      -  s           3.459   0.688
      -  p          18.016   0.598
      -  d           0.000   0.619
  
    # Using partial waves for O as LCAO basis

  C:
    name: Carbon
    id: d60576a1f549371a163e72552ca58787
    Z: 6.0
    valence: 4
    core: 2
    charge: 0.0
    file: /apps/Common/software/GPAW-setups/0.9.20000/C.LDA.gz
    compensation charges: {type: gauss,
                           rc: 0.20,
                           lmax: 2}
    cutoffs: {filter: 1.14,
              core: 1.14}
    valence states:
      #              energy  rcut
      - 2s(2.00)   -13.639   0.635
      - 2p(2.00)    -5.414   0.635
      -  s          13.573   0.635
      -  p          21.797   0.635
      -  d           0.000   0.635
  
    # Using partial waves for C as LCAO basis

Reference energy: -3046.710606  # eV

Spin-paired calculation

Convergence criteria:
 Maximum [total energy] change in last 3 cyles: 0.0005 eV / electron
 Maximum integral of absolute [dens]ity change: 0.0001 electrons / valence electron
 Maximum integral of absolute [eigenst]ate change: 4e-08 eV^2 / valence electron
 Maximum number of scf [iter]ations: 333
 (Square brackets indicate name in SCF output, whereas a 'c' in
 the SCF output indicates the quantity has converged.)

Symmetries present (total): 8

  ( 1  0  0)  ( 1  0  0)  ( 0  1  0)  ( 0  1  0)  ( 0 -1  0)  ( 0 -1  0)
  ( 0  1  0)  ( 0 -1  0)  ( 1  0  0)  (-1  0  0)  ( 1  0  0)  (-1  0  0)
  ( 0  0  1)  ( 0  0  1)  ( 0  0  1)  ( 0  0  1)  ( 0  0  1)  ( 0  0  1)

  (-1  0  0)  (-1  0  0)
  ( 0  1  0)  ( 0 -1  0)
  ( 0  0  1)  ( 0  0  1)

1 k-point (Gamma)
1 k-point in the irreducible part of the Brillouin zone
       k-points in crystal coordinates                weights
   0:     0.00000000    0.00000000    0.00000000          1/1

Wave functions: Plane wave expansion
  Cutoff energy: 450.000 eV
  Number of coefficients: 37529 (reduced to 18765)
  Pulay-stress correction: 0.000000 eV/Ang^3 (de/decut=0.000000)
  Using FFTW library
  ScaLapack parameters: grid=1x1, blocksize=None
  Wavefunction extrapolation:
    Improved wavefunction reuse through dual PAW basis 

Occupation numbers: # Zero width 

Eigensolver
   Davidson(niter=2) 

Densities:
  Coarse grid: 60*60*60 grid
  Fine grid: 120*120*120 grid
  Total Charge: 0.000000 

Density mixing:
  Method: separate
  Backend: pulay
  Linear mixing parameter: 0.05
  old densities: 5
  Damping of long wavelength oscillations: 50 

Hamiltonian:
  XC and Coulomb potentials evaluated on a 120*120*120 grid
  Using the LDA Exchange-Correlation functional
  External potential:
    NoExternalPotential
 

Memory estimate:
  Process memory now: 646.29 MiB
  Calculator: 151.49 MiB
    Density: 109.04 MiB
      Arrays: 42.85 MiB
      Localized functions: 49.71 MiB
      Mixer: 16.48 MiB
    Hamiltonian: 29.23 MiB
      Arrays: 28.02 MiB
      XC: 0.00 MiB
      Poisson: 0.00 MiB
      vbar: 1.21 MiB
    Wavefunctions: 13.23 MiB
      Arrays psit_nG: 2.29 MiB
      Eigensolver: 3.73 MiB
      Projections: 0.00 MiB
      Projectors: 2.72 MiB
      PW-descriptor: 4.49 MiB

Total number of cores used: 1

Number of atoms: 2
Number of atomic orbitals: 8
Number of bands in calculation: 8
Number of valence electrons: 10
Bands to converge: occupied

... initialized

Initializing position-dependent things.

Density initialized from atomic densities
Creating initial wave functions:
  8 bands from LCAO basis set

        .----------------------------.  
       /|                            |  
      / |                            |  
     /  |                            |  
    /   |                            |  
   /    |                            |  
  /     |                            |  
 *      |                            |  
 |      |                            |  
 |      |                            |  
 |      |          O                 |  
 |      |                            |  
 |      |          C                 |  
 |      |                            |  
 |      |                            |  
 |      .----------------------------.  
 |     /                            /   
 |    /                            /    
 |   /                            /     
 |  /                            /      
 | /                            /       
 |/                            /        
 *----------------------------*         

Positions:
   0 O      6.000000    6.000000    6.575170    ( 0.0000,  0.0000,  0.0000)
   1 C      6.000000    6.000000    5.424830    ( 0.0000,  0.0000,  0.0000)

Unit cell:
           periodic     x           y           z      points  spacing
  1. axis:    no    12.000000    0.000000    0.000000    60     0.2000
  2. axis:    no     0.000000   12.000000    0.000000    60     0.2000
  3. axis:    no     0.000000    0.000000   12.000000    60     0.2000

  Lengths:  12.000000  12.000000  12.000000
  Angles:   90.000000  90.000000  90.000000

Effective grid spacing dv^(1/3) = 0.2000

     iter     time        total  log10-change:
                         energy  eigst   dens
iter:   1 10:32:30   -15.619585
iter:   2 10:32:33   -15.548744  -1.18  -0.92
iter:   3 10:32:36   -15.132845  -1.47  -0.94
iter:   4 10:32:38   -15.057978  -2.09  -1.18
iter:   5 10:32:41   -14.994334  -1.50  -1.32
iter:   6 10:32:45   -14.994685  -2.65  -1.71
iter:   7 10:32:48   -14.971005  -2.42  -1.70
iter:   8 10:32:51   -14.969794  -3.46  -2.34
iter:   9 10:32:55   -14.969778c -4.93  -2.81
iter:  10 10:32:58   -14.969743c -5.48  -2.82
iter:  11 10:33:02   -14.969738c -4.72  -2.87
iter:  12 10:33:05   -14.969729c -6.00  -3.42
iter:  13 10:33:08   -14.969728c -7.02  -3.63
iter:  14 10:33:11   -14.969726c -6.79  -3.69
iter:  15 10:33:15   -14.969727c -7.50c -3.76
iter:  16 10:33:19   -14.969728c -7.34  -3.94
iter:  17 10:33:22   -14.969727c -6.98  -3.80
iter:  18 10:33:25   -14.969727c -7.69c -3.98
iter:  19 10:33:29   -14.969727c -7.52c -4.06c

Converged after 19 iterations.

Dipole moment: (-0.000000, -0.000000, 0.036874) |e|*Ang

Energy contributions relative to reference atoms: (reference = -3046.710606)

Kinetic:        +10.081043
Potential:      -13.650836
External:        +0.000000
XC:             -11.363145
Entropy (-ST):   +0.000000
Local:           -0.036789
--------------------------
Free energy:    -14.969727
Extrapolated:   -14.969727

 Band  Eigenvalues  Occupancy
    0    -28.99192    2.00000
    1    -14.12998    2.00000
    2    -11.81198    2.00000
    3    -11.81198    2.00000
    4     -9.04687    2.00000
    5     -2.32914    0.00000
    6     -2.32914    0.00000
    7     -0.18957    0.00000

Fermi level: -5.68800

Gap: 6.718 eV
Transition (v -> c):
  (s=0, k=0, n=4, [0.00, 0.00, 0.00]) -> (s=0, k=0, n=5, [0.00, 0.00, 0.00])
Timing:                              incl.     excl.
-----------------------------------------------------------
Hamiltonian:                         0.222     0.004   0.0% |
 Atomic:                             0.021     0.001   0.0% |
  XC Correction:                     0.020     0.020   0.0% |
 Calculate atomic Hamiltonians:      0.028     0.028   0.0% |
 Communicate:                        0.000     0.000   0.0% |
 Initialize Hamiltonian:             0.000     0.000   0.0% |
 Poisson:                            0.011     0.011   0.0% |
 XC 3D grid:                         0.156     0.156   0.2% |
LCAO initialization:                 0.095     0.060   0.1% |
 LCAO eigensolver:                   0.007     0.001   0.0% |
  Calculate projections:             0.000     0.000   0.0% |
  DenseAtomicCorrection:             0.000     0.000   0.0% |
  Distribute overlap matrix:         0.000     0.000   0.0% |
  Orbital Layouts:                   0.001     0.001   0.0% |
  Potential matrix:                  0.004     0.004   0.0% |
 LCAO to grid:                       0.023     0.023   0.0% |
 Set positions (LCAO WFS):           0.006     0.001   0.0% |
  Basic WFS set positions:           0.000     0.000   0.0% |
  Basis functions set positions:     0.000     0.000   0.0% |
  P tci:                             0.002     0.002   0.0% |
  ST tci:                            0.001     0.001   0.0% |
  mktci:                             0.002     0.002   0.0% |
PWDescriptor:                        0.687     0.687   1.1% |
SCF-cycle:                          60.623     0.020   0.0% |
 Davidson:                          38.460    29.334  45.0% |-----------------|
  Apply H:                           1.171     1.158   1.8% ||
   HMM T:                            0.013     0.013   0.0% |
  Subspace diag:                     2.779     0.003   0.0% |
   calc_h_matrix:                    0.631     0.020   0.0% |
    Apply H:                         0.611     0.578   0.9% |
     HMM T:                          0.032     0.032   0.0% |
   diagonalize:                      0.011     0.011   0.0% |
   rotate_psi:                       2.134     2.134   3.3% ||
  calc. matrices:                    1.335     0.107   0.2% |
   Apply H:                          1.227     1.202   1.8% ||
    HMM T:                           0.025     0.025   0.0% |
  diagonalize:                       0.020     0.020   0.0% |
  rotate_psi:                        3.822     3.822   5.9% |-|
 Density:                           18.347     0.000   0.0% |
  Atomic density matrices:           0.011     0.011   0.0% |
  Mix:                              15.844    15.844  24.3% |---------|
  Multipole moments:                 0.002     0.002   0.0% |
  Pseudo density:                    2.489     0.668   1.0% |
   Symmetrize density:               1.821     1.821   2.8% ||
 Hamiltonian:                        3.768     0.078   0.1% |
  Atomic:                            0.377     0.013   0.0% |
   XC Correction:                    0.364     0.364   0.6% |
  Calculate atomic Hamiltonians:     0.568     0.568   0.9% |
  Communicate:                       0.000     0.000   0.0% |
  Poisson:                           0.107     0.107   0.2% |
  XC 3D grid:                        2.638     2.638   4.0% |-|
 Orthonormalize:                     0.029     0.000   0.0% |
  calc_s_matrix:                     0.001     0.001   0.0% |
  inverse-cholesky:                  0.001     0.001   0.0% |
  projections:                       0.004     0.004   0.0% |
  rotate_psi_s:                      0.023     0.023   0.0% |
Set symmetry:                        0.003     0.003   0.0% |
Other:                               3.581     3.581   5.5% |-|
-----------------------------------------------------------
Total:                                        65.211 100.0%

Memory usage: 837.49 MiB
Date: Thu Feb 16 10:33:29 2023
