
  ___ ___ ___ _ _ _  
 |   |   |_  | | | | 
 | | | | | . | | | | 
 |__ |  _|___|_____|  22.8.0
 |___|_|             

User:   gotols@vera1
Date:   Tue Mar  7 15:53:29 2023
Arch:   x86_64
Pid:    740398
CWD:    /cephyr/users/gotols/Vera/TIF320-Computational-materials-and-molecular-physics-Assignments
Python: 3.10.4
gpaw:   /apps/Arch/software/GPAW/22.8.0-foss-2022a/lib/python3.10/site-packages/gpaw
_gpaw:  /apps/Arch/software/GPAW/22.8.0-foss-2022a/lib/python3.10/site-packages/
        _gpaw.cpython-310-x86_64-linux-gnu.so
ase:    /apps/Arch/software/ASE/3.22.1-foss-2022a/lib/python3.10/site-packages/ase (version 3.22.1)
numpy:  /apps/Arch/software/SciPy-bundle/2022.05-foss-2022a/lib/python3.10/site-packages/numpy (version 1.22.3)
scipy:  /apps/Arch/software/SciPy-bundle/2022.05-foss-2022a/lib/python3.10/site-packages/scipy (version 1.8.1)
libxc:  5.2.3
units:  Angstrom and eV
cores: 1
OpenMP: False
OMP_NUM_THREADS: 1

Input parameters:
  kpts: {gamma: True}
  mode: {ecut: 450.00000000000006,
         name: pw}
  xc: PBE

System changes: positions, numbers, cell, pbc, initial_charges, initial_magmoms 

Initialize ...

species:
  O:
    name: Oxygen
    id: 32ecd46bf208036f09c70b0ec9a88b78
    Z: 8.0
    valence: 6
    core: 2
    charge: 0.0
    file: /apps/Common/software/GPAW-setups/0.9.20000/O.PBE.gz
    compensation charges: {type: gauss,
                           rc: 0.21,
                           lmax: 2}
    cutoffs: {filter: 1.17,
              core: 0.83}
    valence states:
      #              energy  rcut
      - 2s(2.00)   -23.961   0.688
      - 2p(4.00)    -9.029   0.598
      -  s           3.251   0.688
      -  p          18.182   0.598
      -  d           0.000   0.619
  
    # Using partial waves for O as LCAO basis

  C:
    name: Carbon
    id: 4aa54d4b901d75f77cc0ea3eec22967b
    Z: 6.0
    valence: 4
    core: 2
    charge: 0.0
    file: /apps/Common/software/GPAW-setups/0.9.20000/C.PBE.gz
    compensation charges: {type: gauss,
                           rc: 0.20,
                           lmax: 2}
    cutoffs: {filter: 1.14,
              core: 1.14}
    valence states:
      #              energy  rcut
      - 2s(2.00)   -13.751   0.635
      - 2p(2.00)    -5.284   0.635
      -  s          13.461   0.635
      -  p          21.927   0.635
      -  d           0.000   0.635
  
    # Using partial waves for C as LCAO basis

Reference energy: -3068.480417  # eV

Spin-paired calculation

Convergence criteria:
 Maximum [total energy] change in last 3 cyles: 0.0005 eV / electron
 Maximum integral of absolute [dens]ity change: 0.0001 electrons / valence electron
 Maximum integral of absolute [eigenst]ate change: 4e-08 eV^2 / valence electron
 Maximum number of scf [iter]ations: 333
 (Square brackets indicate name in SCF output, whereas a 'c' in
 the SCF output indicates the quantity has converged.)

Symmetries present (total): 8

  ( 1  0  0)  ( 1  0  0)  ( 0  1  0)  ( 0  1  0)  ( 0 -1  0)  ( 0 -1  0)
  ( 0  1  0)  ( 0 -1  0)  ( 1  0  0)  (-1  0  0)  ( 1  0  0)  (-1  0  0)
  ( 0  0  1)  ( 0  0  1)  ( 0  0  1)  ( 0  0  1)  ( 0  0  1)  ( 0  0  1)

  (-1  0  0)  (-1  0  0)
  ( 0  1  0)  ( 0 -1  0)
  ( 0  0  1)  ( 0  0  1)

1 k-point (Gamma)
1 k-point in the irreducible part of the Brillouin zone
       k-points in crystal coordinates                weights
   0:     0.00000000    0.00000000    0.00000000          1/1

Wave functions: Plane wave expansion
  Cutoff energy: 450.000 eV
  Number of coefficients: 37529 (reduced to 18765)
  Pulay-stress correction: 0.000000 eV/Ang^3 (de/decut=0.000000)
  Using FFTW library
  ScaLapack parameters: grid=1x1, blocksize=None
  Wavefunction extrapolation:
    Improved wavefunction reuse through dual PAW basis 

Occupation numbers: # Zero width 

Eigensolver
   Davidson(niter=2) 

Densities:
  Coarse grid: 60*60*60 grid
  Fine grid: 120*120*120 grid
  Total Charge: 0.000000 

Density mixing:
  Method: separate
  Backend: pulay
  Linear mixing parameter: 0.05
  old densities: 5
  Damping of long wavelength oscillations: 50 

Hamiltonian:
  XC and Coulomb potentials evaluated on a 120*120*120 grid
  Using the PBE Exchange-Correlation functional
  External potential:
    NoExternalPotential
 

XC parameters: PBE with 2 nearest neighbor stencil

Memory estimate:
  Process memory now: 471.10 MiB
  Calculator: 151.49 MiB
    Density: 109.04 MiB
      Arrays: 42.85 MiB
      Localized functions: 49.71 MiB
      Mixer: 16.48 MiB
    Hamiltonian: 29.23 MiB
      Arrays: 28.02 MiB
      XC: 0.00 MiB
      Poisson: 0.00 MiB
      vbar: 1.21 MiB
    Wavefunctions: 13.23 MiB
      Arrays psit_nG: 2.29 MiB
      Eigensolver: 3.73 MiB
      Projections: 0.00 MiB
      Projectors: 2.72 MiB
      PW-descriptor: 4.49 MiB

Total number of cores used: 1

Number of atoms: 2
Number of atomic orbitals: 8
Number of bands in calculation: 8
Number of valence electrons: 10
Bands to converge: occupied

... initialized

Initializing position-dependent things.

Density initialized from atomic densities
Creating initial wave functions:
  8 bands from LCAO basis set

        .----------------------------.  
       /|                            |  
      / |                            |  
     /  |                            |  
    /   |                            |  
   /    |                            |  
  /     |                            |  
 *      |                            |  
 |      |                            |  
 |      |                            |  
 |      |          O                 |  
 |      |                            |  
 |      |          C                 |  
 |      |                            |  
 |      |                            |  
 |      .----------------------------.  
 |     /                            /   
 |    /                            /    
 |   /                            /     
 |  /                            /      
 | /                            /       
 |/                            /        
 *----------------------------*         

Positions:
   0 O      6.000000    6.000000    6.575170    ( 0.0000,  0.0000,  0.0000)
   1 C      6.000000    6.000000    5.424830    ( 0.0000,  0.0000,  0.0000)

Unit cell:
           periodic     x           y           z      points  spacing
  1. axis:    no    12.000000    0.000000    0.000000    60     0.2000
  2. axis:    no     0.000000   12.000000    0.000000    60     0.2000
  3. axis:    no     0.000000    0.000000   12.000000    60     0.2000

  Lengths:  12.000000  12.000000  12.000000
  Angles:   90.000000  90.000000  90.000000

Effective grid spacing dv^(1/3) = 0.2000

     iter     time        total  log10-change:
                         energy  eigst   dens
iter:   1 15:53:37   -14.756275
iter:   2 15:53:40   -14.699537  -1.16  -0.92
iter:   3 15:53:43   -14.333504  -1.48  -0.95
iter:   4 15:53:47   -14.268437  -2.08  -1.18
iter:   5 15:53:51   -14.218097  -1.54  -1.32
iter:   6 15:53:55   -14.219117  -2.62  -1.71
iter:   7 15:53:59   -14.195578  -2.44  -1.70
iter:   8 15:54:03   -14.194326  -3.46  -2.34
iter:   9 15:54:07   -14.194292c -4.84  -2.80
iter:  10 15:54:12   -14.194362c -4.50  -2.84
iter:  11 15:54:16   -14.194273c -5.01  -2.92
iter:  12 15:54:20   -14.194270c -5.74  -3.56
iter:  13 15:54:23   -14.194271c -6.54  -3.66
Timing:                              incl.     excl.
-----------------------------------------------------------
Hamiltonian:                         0.746     0.005   0.0% |
 Atomic:                             0.055     0.001   0.0% |
  XC Correction:                     0.054     0.054   0.1% |
 Calculate atomic Hamiltonians:      0.033     0.033   0.1% |
 Communicate:                        0.000     0.000   0.0% |
 Initialize Hamiltonian:             0.000     0.000   0.0% |
 Poisson:                            0.012     0.012   0.0% |
 XC 3D grid:                         0.641     0.641   1.1% |
LCAO initialization:                 0.103     0.067   0.1% |
 LCAO eigensolver:                   0.006     0.000   0.0% |
  Calculate projections:             0.000     0.000   0.0% |
  DenseAtomicCorrection:             0.000     0.000   0.0% |
  Distribute overlap matrix:         0.000     0.000   0.0% |
  Orbital Layouts:                   0.002     0.002   0.0% |
  Potential matrix:                  0.004     0.004   0.0% |
 LCAO to grid:                       0.023     0.023   0.0% |
 Set positions (LCAO WFS):           0.007     0.001   0.0% |
  Basic WFS set positions:           0.001     0.001   0.0% |
  Basis functions set positions:     0.000     0.000   0.0% |
  P tci:                             0.002     0.002   0.0% |
  ST tci:                            0.001     0.001   0.0% |
  mktci:                             0.003     0.003   0.0% |
PWDescriptor:                        0.702     0.702   1.2% |
SCF-cycle:                          51.691     0.394   0.7% |
 Davidson:                          28.092    21.736  38.2% |--------------|
  Apply H:                           0.767     0.758   1.3% ||
   HMM T:                            0.009     0.009   0.0% |
  Subspace diag:                     1.985     0.002   0.0% |
   calc_h_matrix:                    0.446     0.015   0.0% |
    Apply H:                         0.431     0.414   0.7% |
     HMM T:                          0.017     0.017   0.0% |
   diagonalize:                      0.009     0.009   0.0% |
   rotate_psi:                       1.528     1.528   2.7% ||
  calc. matrices:                    0.770     0.067   0.1% |
   Apply H:                          0.704     0.686   1.2% |
    HMM T:                           0.017     0.017   0.0% |
  diagonalize:                       0.015     0.015   0.0% |
  rotate_psi:                        2.819     2.819   5.0% |-|
 Density:                           13.524     0.000   0.0% |
  Atomic density matrices:           0.009     0.009   0.0% |
  Mix:                              11.661    11.661  20.5% |-------|
  Multipole moments:                 0.002     0.002   0.0% |
  Pseudo density:                    1.853     0.617   1.1% |
   Symmetrize density:               1.236     1.236   2.2% ||
 Hamiltonian:                        9.646     0.055   0.1% |
  Atomic:                            0.681     0.009   0.0% |
   XC Correction:                    0.672     0.672   1.2% |
  Calculate atomic Hamiltonians:     0.406     0.406   0.7% |
  Communicate:                       0.000     0.000   0.0% |
  Poisson:                           0.079     0.079   0.1% |
  XC 3D grid:                        8.426     8.426  14.8% |-----|
 Orthonormalize:                     0.035     0.000   0.0% |
  calc_s_matrix:                     0.001     0.001   0.0% |
  inverse-cholesky:                  0.001     0.001   0.0% |
  projections:                       0.004     0.004   0.0% |
  rotate_psi_s:                      0.029     0.029   0.1% |
Set symmetry:                        0.004     0.004   0.0% |
Other:                               3.683     3.683   6.5% |--|
-----------------------------------------------------------
Total:                                        56.930 100.0%

Memory usage: 737.88 MiB
Date: Tue Mar  7 15:54:26 2023
