2
Lattice="12.0 0.0 0.0 0.0 12.0 0.0 0.0 0.0 12.0" Properties=species:S:1:pos:R:3:forces:R:3:magmoms:R:1 energy=-14.199646224218295 dipole="-2.178610645687318e-14 -2.2130157812012262e-14 0.042226204786546685" magmom=0.0 free_energy=-14.199646224218295 pbc="F F F"
O        6.00000000       6.00000000       6.57187411       0.00000000       0.00000000       0.01578031       0.00000000
C        6.00000000       6.00000000       5.43138598       0.00000000       0.00000000       0.00789324       0.00000000
