2
Lattice="12.0 0.0 0.0 0.0 12.0 0.0 0.0 0.0 12.0" Properties=species:S:1:pos:R:3:magmoms:R:1 energy=-14.194269345199485 dipole="-2.176396989023171e-14 -2.2374599660332116e-14 0.03549027147340173" magmom=0.0 free_energy=-14.194269345199485 pbc="F F F"
O        6.00000000       6.00000000       6.57517000       0.00000000
C        6.00000000       6.00000000       5.42483000       0.00000000
