
  ___ ___ ___ _ _ _  
 |   |   |_  | | | | 
 | | | | | . | | | | 
 |__ |  _|___|_____|  22.8.0
 |___|_|             

User:   gotols@vera1
Date:   Thu Feb 16 10:33:29 2023
Arch:   x86_64
Pid:    482580
CWD:    /cephyr/users/gotols/Vera/TIF320-Computational-materials-and-molecular-physics-Assignments
Python: 3.10.4
gpaw:   /apps/Arch/software/GPAW/22.8.0-foss-2022a/lib/python3.10/site-packages/gpaw
_gpaw:  /apps/Arch/software/GPAW/22.8.0-foss-2022a/lib/python3.10/site-packages/
        _gpaw.cpython-310-x86_64-linux-gnu.so
ase:    /apps/Arch/software/ASE/3.22.1-foss-2022a/lib/python3.10/site-packages/ase (version 3.22.1)
numpy:  /apps/Arch/software/SciPy-bundle/2022.05-foss-2022a/lib/python3.10/site-packages/numpy (version 1.22.3)
scipy:  /apps/Arch/software/SciPy-bundle/2022.05-foss-2022a/lib/python3.10/site-packages/scipy (version 1.8.1)
libxc:  5.2.3
units:  Angstrom and eV
cores: 1
OpenMP: False
OMP_NUM_THREADS: 1

Input parameters:
  kpts: {gamma: True}
  mode: {ecut: 450.00000000000006,
         name: pw}

System changes: positions, numbers, cell, pbc, initial_charges, initial_magmoms 

Initialize ...

species:
  O:
    name: Oxygen
    id: 9b9d51c344dea68c822856295a461509
    Z: 8.0
    valence: 6
    core: 2
    charge: 0.0
    file: /apps/Common/software/GPAW-setups/0.9.20000/O.LDA.gz
    compensation charges: {type: gauss,
                           rc: 0.21,
                           lmax: 2}
    cutoffs: {filter: 1.17,
              core: 0.83}
    valence states:
      #              energy  rcut
      - 2s(2.00)   -23.752   0.688
      - 2p(4.00)    -9.195   0.598
      -  s           3.459   0.688
      -  p          18.016   0.598
      -  d           0.000   0.619
  
    # Using partial waves for O as LCAO basis

Reference energy: -4055.816137  # eV

Spin-polarized calculation.
Magnetic moment: 2.000000

Convergence criteria:
 Maximum [total energy] change in last 3 cyles: 0.0005 eV / electron
 Maximum integral of absolute [dens]ity change: 0.0001 electrons / valence electron
 Maximum integral of absolute [eigenst]ate change: 4e-08 eV^2 / valence electron
 Maximum number of scf [iter]ations: 333
 (Square brackets indicate name in SCF output, whereas a 'c' in
 the SCF output indicates the quantity has converged.)

Symmetries present (total): 16

  ( 1  0  0)  ( 1  0  0)  ( 1  0  0)  ( 1  0  0)  ( 0  1  0)  ( 0  1  0)
  ( 0  1  0)  ( 0  1  0)  ( 0 -1  0)  ( 0 -1  0)  ( 1  0  0)  ( 1  0  0)
  ( 0  0  1)  ( 0  0 -1)  ( 0  0  1)  ( 0  0 -1)  ( 0  0  1)  ( 0  0 -1)

  ( 0  1  0)  ( 0  1  0)  ( 0 -1  0)  ( 0 -1  0)  ( 0 -1  0)  ( 0 -1  0)
  (-1  0  0)  (-1  0  0)  ( 1  0  0)  ( 1  0  0)  (-1  0  0)  (-1  0  0)
  ( 0  0  1)  ( 0  0 -1)  ( 0  0  1)  ( 0  0 -1)  ( 0  0  1)  ( 0  0 -1)

  (-1  0  0)  (-1  0  0)  (-1  0  0)  (-1  0  0)
  ( 0  1  0)  ( 0  1  0)  ( 0 -1  0)  ( 0 -1  0)
  ( 0  0  1)  ( 0  0 -1)  ( 0  0  1)  ( 0  0 -1)

1 k-point (Gamma)
1 k-point in the irreducible part of the Brillouin zone
       k-points in crystal coordinates                weights
   0:     0.00000000    0.00000000    0.00000000          1/1

Wave functions: Plane wave expansion
  Cutoff energy: 450.000 eV
  Number of coefficients: 37529 (reduced to 18765)
  Pulay-stress correction: 0.000000 eV/Ang^3 (de/decut=0.000000)
  Using FFTW library
  ScaLapack parameters: grid=1x1, blocksize=None
  Wavefunction extrapolation:
    Improved wavefunction reuse through dual PAW basis 

Occupation numbers: # Zero width 

Eigensolver
   Davidson(niter=2) 

Densities:
  Coarse grid: 60*60*60 grid
  Fine grid: 120*120*120 grid
  Total Charge: 0.000000 

Density mixing:
  Method: difference
  Backend: pulay
  Linear mixing parameter: 0.05
  old densities: 5
  Damping of long wavelength oscillations: 50 

Hamiltonian:
  XC and Coulomb potentials evaluated on a 120*120*120 grid
  Using the LDA Exchange-Correlation functional
  External potential:
    NoExternalPotential
 

Memory estimate:
  Process memory now: 837.49 MiB
  Calculator: 178.82 MiB
    Density: 120.36 MiB
      Arrays: 57.68 MiB
      Localized functions: 39.61 MiB
      Mixer: 23.07 MiB
    Hamiltonian: 43.66 MiB
      Arrays: 42.85 MiB
      XC: 0.00 MiB
      Poisson: 0.00 MiB
      vbar: 0.81 MiB
    Wavefunctions: 14.80 MiB
      Arrays psit_nG: 4.58 MiB
      Eigensolver: 3.73 MiB
      Projections: 0.00 MiB
      Projectors: 2.00 MiB
      PW-descriptor: 4.49 MiB

Total number of cores used: 1

Number of atoms: 2
Number of atomic orbitals: 8
Number of bands in calculation: 8
Number of valence electrons: 12
Bands to converge: occupied

... initialized

Initializing position-dependent things.

Density initialized from atomic densities
Creating initial wave functions:
  8 bands from LCAO basis set

        .----------------------------.  
       /|                            |  
      / |                            |  
     /  |                            |  
    /   |                            |  
   /    |                            |  
  /     |                            |  
 *      |                            |  
 |      |                            |  
 |      |                            |  
 |      |          O                 |  
 |      |                            |  
 |      |          O                 |  
 |      |                            |  
 |      |                            |  
 |      .----------------------------.  
 |     /                            /   
 |    /                            /    
 |   /                            /     
 |  /                            /      
 | /                            /       
 |/                            /        
 *----------------------------*         

Positions:
   0 O      6.000000    6.000000    6.622978    ( 0.0000,  0.0000,  1.0000)
   1 O      6.000000    6.000000    5.377022    ( 0.0000,  0.0000,  1.0000)

Unit cell:
           periodic     x           y           z      points  spacing
  1. axis:    no    12.000000    0.000000    0.000000    60     0.2000
  2. axis:    no     0.000000   12.000000    0.000000    60     0.2000
  3. axis:    no     0.000000    0.000000   12.000000    60     0.2000

  Lengths:  12.000000  12.000000  12.000000
  Angles:   90.000000  90.000000  90.000000

Effective grid spacing dv^(1/3) = 0.2000

     iter     time        total  log10-change:  magmom
                         energy  eigst   dens
iter:   1 10:33:35    -9.287012                  +1.9998
iter:   2 10:33:41    -9.503245  -1.37  -1.22    +2.0000
iter:   3 10:33:47    -9.373663  -1.69  -1.25    +2.0000
iter:   4 10:33:53    -9.364621  -2.07  -1.63    +2.0000
iter:   5 10:34:00    -9.365813  -2.45  -2.01    +2.0000
iter:   6 10:34:06    -9.358606  -2.84  -2.07    +2.0000
iter:   7 10:34:12    -9.358948  -3.96  -2.85    +2.0000
iter:   8 10:34:19    -9.358440c -4.04  -2.68    +2.0000
iter:   9 10:34:26    -9.358446c -5.24  -3.66    +2.0000
iter:  10 10:34:32    -9.358440c -6.13  -3.53    +2.0000
iter:  11 10:34:38    -9.358440c -7.07  -3.70    +2.0000
iter:  12 10:34:45    -9.358441c -7.16  -3.69    +2.0000
iter:  13 10:34:52    -9.358439c -6.15  -3.64    +2.0000
iter:  14 10:34:59    -9.358439c -7.17  -4.41c   +2.0000
iter:  15 10:35:07    -9.358439c -7.87c -4.52c   +2.0000

Converged after 15 iterations.

Dipole moment: (-0.000000, -0.000000, -0.000000) |e|*Ang

Total magnetic moment: (0.000000, 0.000000, 2.000000)
Local magnetic moments:
   0 O  ( 0.000000,  0.000000,  0.717412)
   1 O  ( 0.000000,  0.000000,  0.717412)

Energy contributions relative to reference atoms: (reference = -4055.816137)

Kinetic:         +1.180826
Potential:       -1.711351
External:        +0.000000
XC:              -8.786893
Entropy (-ST):   +0.000000
Local:           -0.041021
--------------------------
Free energy:     -9.358439
Extrapolated:    -9.358439

Spin contamination: 0.021224 electrons
                   Up                     Down
 Band  Eigenvalues  Occupancy  Eigenvalues  Occupancy
    0    -32.24623    1.00000    -30.95880    1.00000
    1    -20.68534    1.00000    -18.98174    1.00000
    2    -13.70151    1.00000    -12.57240    1.00000
    3    -13.28822    1.00000    -11.58216    1.00000
    4    -13.28822    1.00000    -11.58216    1.00000
    5     -7.07110    1.00000     -5.03328    0.00000
    6     -7.07110    1.00000     -5.03328    0.00000
    7      0.64164    0.00000      0.72883    0.00000

Fermi level: -6.05219

Gap: 2.038 eV
Transition (v -> c):
  (s=0, k=0, n=6, [0.00, 0.00, 0.00]) -> (s=1, k=0, n=5, [0.00, 0.00, 0.00])
Timing:                              incl.     excl.
-----------------------------------------------------------
Hamiltonian:                         0.594     0.004   0.0% |
 Atomic:                             0.034     0.001   0.0% |
  XC Correction:                     0.033     0.033   0.0% |
 Calculate atomic Hamiltonians:      0.028     0.028   0.0% |
 Communicate:                        0.000     0.000   0.0% |
 Initialize Hamiltonian:             0.002     0.002   0.0% |
 Poisson:                            0.007     0.007   0.0% |
 XC 3D grid:                         0.519     0.519   0.5% |
LCAO initialization:                 0.068     0.015   0.0% |
 LCAO eigensolver:                   0.009     0.000   0.0% |
  Calculate projections:             0.000     0.000   0.0% |
  DenseAtomicCorrection:             0.000     0.000   0.0% |
  Distribute overlap matrix:         0.000     0.000   0.0% |
  Orbital Layouts:                   0.001     0.001   0.0% |
  Potential matrix:                  0.008     0.008   0.0% |
 LCAO to grid:                       0.037     0.037   0.0% |
 Set positions (LCAO WFS):           0.007     0.001   0.0% |
  Basic WFS set positions:           0.001     0.001   0.0% |
  Basis functions set positions:     0.000     0.000   0.0% |
  P tci:                             0.002     0.002   0.0% |
  ST tci:                            0.001     0.001   0.0% |
  mktci:                             0.003     0.003   0.0% |
PWDescriptor:                        0.029     0.029   0.0% |
SCF-cycle:                          96.046     0.106   0.1% |
 Davidson:                          62.818    47.563  48.4% |------------------|
  Apply H:                           1.810     1.720   1.8% ||
   HMM T:                            0.091     0.091   0.1% |
  Subspace diag:                     5.065     0.005   0.0% |
   calc_h_matrix:                    1.565     0.032   0.0% |
    Apply H:                         1.533     1.372   1.4% ||
     HMM T:                          0.161     0.161   0.2% |
   diagonalize:                      0.019     0.019   0.0% |
   rotate_psi:                       3.476     3.476   3.5% ||
  calc. matrices:                    1.953     0.165   0.2% |
   Apply H:                          1.789     1.749   1.8% ||
    HMM T:                           0.040     0.040   0.0% |
  diagonalize:                       0.029     0.029   0.0% |
  rotate_psi:                        6.399     6.399   6.5% |--|
 Density:                           23.169     0.000   0.0% |
  Atomic density matrices:           0.016     0.016   0.0% |
  Mix:                              17.494    17.494  17.8% |------|
  Multipole moments:                 0.002     0.002   0.0% |
  Pseudo density:                    5.657     0.900   0.9% |
   Symmetrize density:               4.756     4.756   4.8% |-|
 Hamiltonian:                        9.814     0.074   0.1% |
  Atomic:                            0.518     0.010   0.0% |
   XC Correction:                    0.508     0.508   0.5% |
  Calculate atomic Hamiltonians:     0.441     0.441   0.4% |
  Communicate:                       0.000     0.000   0.0% |
  Poisson:                           0.100     0.100   0.1% |
  XC 3D grid:                        8.682     8.682   8.8% |---|
 Orthonormalize:                     0.138     0.000   0.0% |
  calc_s_matrix:                     0.001     0.001   0.0% |
  inverse-cholesky:                  0.000     0.000   0.0% |
  projections:                       0.079     0.079   0.1% |
  rotate_psi_s:                      0.058     0.058   0.1% |
Set symmetry:                        0.003     0.003   0.0% |
Other:                               1.447     1.447   1.5% ||
-----------------------------------------------------------
Total:                                        98.187 100.0%

Memory usage: 882.18 MiB
Date: Thu Feb 16 10:35:07 2023
