
  ___ ___ ___ _ _ _  
 |   |   |_  | | | | 
 | | | | | . | | | | 
 |__ |  _|___|_____|  22.8.0
 |___|_|             

User:   gotols@vera34-3
Date:   Tue Mar  7 16:08:59 2023
Arch:   x86_64
Pid:    2616505
CWD:    /cephyr/users/gotols/Vera/TIF320-Computational-materials-and-molecular-physics-Assignments
Python: 3.10.4
gpaw:   /apps/Arch/software/GPAW/22.8.0-foss-2022a/lib/python3.10/site-packages/gpaw
_gpaw:  /apps/Arch/software/GPAW/22.8.0-foss-2022a/lib/python3.10/site-packages/
        _gpaw.cpython-310-x86_64-linux-gnu.so
ase:    /apps/Arch/software/ASE/3.22.1-foss-2022a/lib/python3.10/site-packages/ase (version 3.22.1)
numpy:  /apps/Arch/software/SciPy-bundle/2022.05-foss-2022a/lib/python3.10/site-packages/numpy (version 1.22.3)
scipy:  /apps/Arch/software/SciPy-bundle/2022.05-foss-2022a/lib/python3.10/site-packages/scipy (version 1.8.1)
libxc:  5.2.3
units:  Angstrom and eV
cores: 4
OpenMP: False
OMP_NUM_THREADS: 1

Input parameters:
  kpts: {gamma: True}
  mode: {ecut: 450.00000000000006,
         name: pw}
  xc: PBE

System changes: positions, numbers, cell, pbc, initial_charges, initial_magmoms 

Initialize ...

species:
  O:
    name: Oxygen
    id: 32ecd46bf208036f09c70b0ec9a88b78
    Z: 8.0
    valence: 6
    core: 2
    charge: 0.0
    file: /apps/Common/software/GPAW-setups/0.9.20000/O.PBE.gz
    compensation charges: {type: gauss,
                           rc: 0.21,
                           lmax: 2}
    cutoffs: {filter: 1.17,
              core: 0.83}
    valence states:
      #              energy  rcut
      - 2s(2.00)   -23.961   0.688
      - 2p(4.00)    -9.029   0.598
      -  s           3.251   0.688
      -  p          18.182   0.598
      -  d           0.000   0.619
  
    # Using partial waves for O as LCAO basis

Reference energy: -4081.704602  # eV

Spin-polarized calculation.
Magnetic moment: 2.000000

Convergence criteria:
 Maximum [total energy] change in last 3 cyles: 0.0005 eV / electron
 Maximum integral of absolute [dens]ity change: 0.0001 electrons / valence electron
 Maximum integral of absolute [eigenst]ate change: 4e-08 eV^2 / valence electron
 Maximum number of scf [iter]ations: 333
 (Square brackets indicate name in SCF output, whereas a 'c' in
 the SCF output indicates the quantity has converged.)

Symmetries present (total): 16

  ( 1  0  0)  ( 1  0  0)  ( 1  0  0)  ( 1  0  0)  ( 0  1  0)  ( 0  1  0)
  ( 0  1  0)  ( 0  1  0)  ( 0 -1  0)  ( 0 -1  0)  ( 1  0  0)  ( 1  0  0)
  ( 0  0  1)  ( 0  0 -1)  ( 0  0  1)  ( 0  0 -1)  ( 0  0  1)  ( 0  0 -1)

  ( 0  1  0)  ( 0  1  0)  ( 0 -1  0)  ( 0 -1  0)  ( 0 -1  0)  ( 0 -1  0)
  (-1  0  0)  (-1  0  0)  ( 1  0  0)  ( 1  0  0)  (-1  0  0)  (-1  0  0)
  ( 0  0  1)  ( 0  0 -1)  ( 0  0  1)  ( 0  0 -1)  ( 0  0  1)  ( 0  0 -1)

  (-1  0  0)  (-1  0  0)  (-1  0  0)  (-1  0  0)
  ( 0  1  0)  ( 0  1  0)  ( 0 -1  0)  ( 0 -1  0)
  ( 0  0  1)  ( 0  0 -1)  ( 0  0  1)  ( 0  0 -1)

1 k-point (Gamma)
1 k-point in the irreducible part of the Brillouin zone
       k-points in crystal coordinates                weights
   0:     0.00000000    0.00000000    0.00000000          1/1

Wave functions: Plane wave expansion
  Cutoff energy: 450.000 eV
  Number of coefficients: 37529 (reduced to 18765)
  Pulay-stress correction: 0.000000 eV/Ang^3 (de/decut=0.000000)
  Using FFTW library
  ScaLapack parameters: grid=1x1, blocksize=None
  Wavefunction extrapolation:
    Improved wavefunction reuse through dual PAW basis 

Occupation numbers: # Zero width 

Eigensolver
   Davidson(niter=2) 

Densities:
  Coarse grid: 60*60*60 grid
  Fine grid: 120*120*120 grid
  Total Charge: 0.000000 

Density mixing:
  Method: difference
  Backend: pulay
  Linear mixing parameter: 0.05
  old densities: 5
  Damping of long wavelength oscillations: 50 

Hamiltonian:
  XC and Coulomb potentials evaluated on a 120*120*120 grid
  Using the PBE Exchange-Correlation functional
  External potential:
    NoExternalPotential
 

XC parameters: PBE with 2 nearest neighbor stencil

Memory estimate:
  Process memory now: 394.18 MiB
  Calculator: 54.14 MiB
    Density: 30.09 MiB
      Arrays: 14.42 MiB
      Localized functions: 9.90 MiB
      Mixer: 5.77 MiB
    Hamiltonian: 10.91 MiB
      Arrays: 10.71 MiB
      XC: 0.00 MiB
      Poisson: 0.00 MiB
      vbar: 0.20 MiB
    Wavefunctions: 13.14 MiB
      Arrays psit_nG: 4.58 MiB
      Eigensolver: 3.73 MiB
      Projections: 0.00 MiB
      Projectors: 0.50 MiB
      PW-descriptor: 4.33 MiB

Total number of cores used: 4
Domain decomposition: 2 x 2 x 1

Number of atoms: 2
Number of atomic orbitals: 8
Number of bands in calculation: 8
Number of valence electrons: 12
Bands to converge: occupied

... initialized

Initializing position-dependent things.

Density initialized from atomic densities
Creating initial wave functions:
  8 bands from LCAO basis set

        .----------------------------.  
       /|                            |  
      / |                            |  
     /  |                            |  
    /   |                            |  
   /    |                            |  
  /     |                            |  
 *      |                            |  
 |      |                            |  
 |      |                            |  
 |      |          O                 |  
 |      |                            |  
 |      |          O                 |  
 |      |                            |  
 |      |                            |  
 |      .----------------------------.  
 |     /                            /   
 |    /                            /    
 |   /                            /     
 |  /                            /      
 | /                            /       
 |/                            /        
 *----------------------------*         

Positions:
   0 O      6.000000    6.000000    6.622978    ( 0.0000,  0.0000,  1.0000)
   1 O      6.000000    6.000000    5.377022    ( 0.0000,  0.0000,  1.0000)

Unit cell:
           periodic     x           y           z      points  spacing
  1. axis:    no    12.000000    0.000000    0.000000    60     0.2000
  2. axis:    no     0.000000   12.000000    0.000000    60     0.2000
  3. axis:    no     0.000000    0.000000   12.000000    60     0.2000

  Lengths:  12.000000  12.000000  12.000000
  Angles:   90.000000  90.000000  90.000000

Effective grid spacing dv^(1/3) = 0.2000

     iter     time        total  log10-change:  magmom
                         energy  eigst   dens
iter:   1 16:09:00    -8.515915                  +1.9998
iter:   2 16:09:01    -8.830776  -1.32  -1.22    +1.9999
iter:   3 16:09:02    -8.732968  -1.60  -1.25    +2.0000
iter:   4 16:09:03    -8.731904  -2.01  -1.63    +2.0000
iter:   5 16:09:04    -8.734359c -2.46  -2.00    +2.0000
iter:   6 16:09:05    -8.727972  -2.77  -2.03    +2.0000
iter:   7 16:09:06    -8.728657  -3.73  -2.76    +2.0000
iter:   8 16:09:07    -8.727723c -3.70  -2.54    +2.0000
iter:   9 16:09:08    -8.727734c -5.00  -3.44    +2.0000
iter:  10 16:09:09    -8.727724c -6.17  -3.34    +2.0000
iter:  11 16:09:10    -8.727717c -6.42  -3.42    +2.0000
iter:  12 16:09:11    -8.727726c -6.45  -3.46    +2.0000
iter:  13 16:09:12    -8.727713c -5.56  -3.40    +2.0000
iter:  14 16:09:13    -8.727714c -6.23  -3.52    +2.0000
iter:  15 16:09:14    -8.727715c -6.33  -3.63    +2.0000
iter:  16 16:09:15    -8.727714c -7.55c -3.70    +2.0000
iter:  17 16:09:16    -8.727714c -6.06  -3.73    +2.0000
iter:  18 16:09:17    -8.727713c -6.70  -3.93    +2.0000
iter:  19 16:09:18    -8.727713c -8.23c -4.25c   +2.0000

Converged after 19 iterations.

Dipole moment: (-0.000000, -0.000000, 0.000000) |e|*Ang

Total magnetic moment: (0.000000, 0.000000, 2.000000)
Local magnetic moments:
   0 O  ( 0.000000,  0.000000,  0.717343)
   1 O  ( 0.000000,  0.000000,  0.717343)

Energy contributions relative to reference atoms: (reference = -4081.704602)

Kinetic:         +1.568787
Potential:       -2.028447
External:        +0.000000
XC:              -8.238147
Entropy (-ST):   +0.000000
Local:           -0.029906
--------------------------
Free energy:     -8.727713
Extrapolated:    -8.727713

Spin contamination: 0.027239 electrons
                   Up                     Down
 Band  Eigenvalues  Occupancy  Eigenvalues  Occupancy
    0    -32.20488    1.00000    -30.98106    1.00000
    1    -20.87450    1.00000    -19.07361    1.00000
    2    -13.40149    1.00000    -12.50258    1.00000
    3    -13.09835    1.00000    -11.25050    1.00000
    4    -13.09835    1.00000    -11.25050    1.00000
    5     -6.96435    1.00000     -4.68043    0.00000
    6     -6.96435    1.00000     -4.68043    0.00000
    7      0.52827    0.00000      0.72440    0.00000

Fermi level: -5.82239

Gap: 2.284 eV
Transition (v -> c):
  (s=0, k=0, n=6, [0.00, 0.00, 0.00]) -> (s=1, k=0, n=5, [0.00, 0.00, 0.00])

Forces in eV/Ang:
  0 O     0.00000    0.00000   -1.75608
  1 O     0.00000    0.00000    1.75608

System changes: positions 

Initializing position-dependent things.

Density initialized from wave functions
        .----------------------------.  
       /|                            |  
      / |                            |  
     /  |                            |  
    /   |                            |  
   /    |                            |  
  /     |                            |  
 *      |                            |  
 |      |                            |  
 |      |                            |  
 |      |                            |  
 |      |          O                 |  
 |      |                            |  
 |      |                            |  
 |      |                            |  
 |      .----------------------------.  
 |     /                            /   
 |    /                            /    
 |   /                            /     
 |  /                            /      
 | /                            /       
 |/                            /        
 *----------------------------*         

Positions:
   0 O      6.000000    6.000000    6.340135    ( 0.0000,  0.0000,  1.0000)
   1 O      6.000000    6.000000    5.659865    ( 0.0000,  0.0000,  1.0000)

Unit cell:
           periodic     x           y           z      points  spacing
  1. axis:    no    12.000000    0.000000    0.000000    60     0.2000
  2. axis:    no     0.000000   12.000000    0.000000    60     0.2000
  3. axis:    no     0.000000    0.000000   12.000000    60     0.2000

  Lengths:  12.000000  12.000000  12.000000
  Angles:   90.000000  90.000000  90.000000

Effective grid spacing dv^(1/3) = 0.2000

     iter     time        total  log10-change:  magmom
                         energy  eigst   dens
iter:   1 16:09:19    41.991440  +0.92           +1.1908
iter:   2 16:09:20    41.868846  -0.37  -0.82    +1.7572
iter:   3 16:09:21    42.103270  -0.42  -0.84    +1.9658
iter:   4 16:09:22    41.264356  -2.05  -0.48    +1.8364
iter:   5 16:09:23    32.160016  -0.84  -0.48    +0.0569
iter:   6 16:09:24    58.999405  +0.63  -0.44    -0.0207
iter:   7 16:09:25    46.053825  +0.52  -0.74    +0.3851
iter:   8 16:09:26    45.898824  -0.74  -0.67    +1.1101
iter:   9 16:09:27    49.120813  -0.76  -0.79    +1.0379
iter:  10 16:09:28    47.946740  -1.30  -0.98    +1.7114
iter:  11 16:09:29    47.083882  -1.26  -1.08    +2.0187
iter:  12 16:09:30    46.434033  -1.31  -1.00    +1.9772
iter:  13 16:09:31    44.892564  -1.50  -1.51    +1.9978
iter:  14 16:09:32    44.042930  -1.02  -1.12    +2.0448
iter:  15 16:09:33    44.040507  -1.71  -1.18    +1.8190
iter:  16 16:09:34    45.500170  -1.66  -1.07    +1.9116
iter:  17 16:09:35    46.203814  -2.13  -1.02    +1.9765
iter:  18 16:09:36    46.576634  -2.51  -1.02    +2.0001
iter:  19 16:09:37    46.676087  -2.17  -1.00    +2.0035
iter:  20 16:09:38    46.608602  -2.89  -0.97    +2.0004
iter:  21 16:09:39    46.611669  -2.17  -0.94    +2.0005
iter:  22 16:09:40    46.730071  -3.15  -0.96    +2.0001
iter:  23 16:09:41    46.476846  -2.00  -0.97    +2.0000
iter:  24 16:09:42    46.574630  -3.13  -1.05    +2.0000
iter:  25 16:09:43    46.692725  -1.98  -1.05    +1.9999
iter:  26 16:09:44    46.460340  -2.51  -1.06    +2.0000
iter:  27 16:09:44    44.624781  -1.39  -1.10    +2.0000
iter:  28 16:09:45    44.745125  -2.89  -1.37    +2.0000
iter:  29 16:09:46    44.513782  -2.34  -1.39    +2.0000
iter:  30 16:09:47    44.161479  -2.19  -1.43    +2.0000
iter:  31 16:09:48    43.909876  -2.41  -1.46    +2.0000
iter:  32 16:09:49    43.949848  -2.40  -1.60    +2.0000
iter:  33 16:09:50    43.881521  -2.96  -1.73    +2.0000
iter:  34 16:09:51    43.686431  -2.11  -1.84    +2.0000
iter:  35 16:09:52    43.684396  -3.56  -2.59    +2.0000
iter:  36 16:09:53    43.681040c -3.81  -2.65    +2.0000
iter:  37 16:09:54    43.692861  -3.56  -2.59    +2.0000
iter:  38 16:09:55    43.706493  -3.38  -2.71    +2.0000
iter:  39 16:09:56    43.707671  -4.39  -2.70    +2.0000
iter:  40 16:09:57    43.721400  -3.51  -2.76    +2.0000
iter:  41 16:09:58    43.721676  -4.62  -2.74    +2.0000
iter:  42 16:09:59    43.711575  -3.98  -2.72    +2.0000
iter:  43 16:10:00    43.722272  -4.20  -2.71    +2.0000
iter:  44 16:10:01    43.705652  -4.05  -2.69    +2.0000
iter:  45 16:10:02    43.708428  -4.22  -2.72    +2.0000
iter:  46 16:10:03    43.719838  -4.29  -2.73    +2.0000
iter:  47 16:10:04    43.683526  -3.32  -2.62    +2.0000
iter:  48 16:10:05    43.681044  -4.00  -3.35    +2.0000
iter:  49 16:10:06    43.682578c -4.25  -3.47    +2.0000
iter:  50 16:10:07    43.681622c -4.80  -3.50    +2.0000
iter:  51 16:10:08    43.686458c -4.22  -3.55    +2.0000
iter:  52 16:10:09    43.683997c -4.88  -3.42    +2.0000
iter:  53 16:10:10    43.684860c -5.50  -3.47    +2.0000
iter:  54 16:10:11    43.683872c -5.35  -3.43    +2.0000
iter:  55 16:10:12    43.682098c -4.55  -3.48    +2.0000
iter:  56 16:10:13    43.681626c -5.16  -3.55    +2.0000
iter:  57 16:10:14    43.679779c -4.45  -3.57    +2.0000
iter:  58 16:10:15    43.679838c -5.67  -3.82    +2.0000
iter:  59 16:10:16    43.679643c -6.26  -4.30c   +2.0000
iter:  60 16:10:17    43.679633c -7.28  -4.44c   +2.0000
iter:  61 16:10:18    43.679650c -6.87  -4.43c   +2.0000
iter:  62 16:10:19    43.679631c -7.21  -4.38c   +2.0000
iter:  63 16:10:20    43.679627c -7.94c -4.41c   +2.0000

Converged after 63 iterations.

Dipole moment: (-0.000000, -0.000000, -0.000000) |e|*Ang

Total magnetic moment: (0.000000, 0.000000, 2.000000)
Local magnetic moments:
   0 O  ( 0.000000,  0.000000,  0.305552)
   1 O  ( 0.000000,  0.000000,  0.305552)

Energy contributions relative to reference atoms: (reference = -4081.704602)

Kinetic:       +195.930955
Potential:     -125.602265
External:        +0.000000
XC:             -26.235117
Entropy (-ST):   +0.000000
Local:           -0.413945
--------------------------
Free energy:    +43.679627
Extrapolated:   +43.679627

Spin contamination: 0.003415 electrons
                   Up                     Down
 Band  Eigenvalues  Occupancy  Eigenvalues  Occupancy
    0    -56.03503    1.00000    -55.67191    1.00000
    1    -31.44587    1.00000    -30.54952    1.00000
    2    -31.44587    1.00000    -30.54952    1.00000
    3    -23.21825    1.00000    -22.12394    1.00000
    4    -22.26201    1.00000    -21.40902    1.00000
    5     -4.39992    1.00000     -0.50926    0.00000
    6     -2.26427    1.00000      0.45788    0.00000
    7     -1.39896    0.00000      0.77369    0.00000

Fermi level: -1.83161

Gap: 0.865 eV
Transition (v -> c):
  (s=0, k=0, n=6, [0.00, 0.00, 0.00]) -> (s=0, k=0, n=7, [0.00, 0.00, 0.00])

Forces in eV/Ang:
  0 O     0.00000    0.00000  347.76531
  1 O     0.00000    0.00000 -347.76531

System changes: positions 

Initializing position-dependent things.

Density initialized from wave functions
        .----------------------------.  
       /|                            |  
      / |                            |  
     /  |                            |  
    /   |                            |  
   /    |                            |  
  /     |                            |  
 *      |                            |  
 |      |                            |  
 |      |                            |  
 |      |          O                 |  
 |      |                            |  
 |      |          O                 |  
 |      |                            |  
 |      |                            |  
 |      .----------------------------.  
 |     /                            /   
 |    /                            /    
 |   /                            /     
 |  /                            /      
 | /                            /       
 |/                            /        
 *----------------------------*         

Positions:
   0 O      6.000000    6.000000    6.520380    ( 0.0000,  0.0000,  1.0000)
   1 O      6.000000    6.000000    5.479620    ( 0.0000,  0.0000,  1.0000)

Unit cell:
           periodic     x           y           z      points  spacing
  1. axis:    no    12.000000    0.000000    0.000000    60     0.2000
  2. axis:    no     0.000000   12.000000    0.000000    60     0.2000
  3. axis:    no     0.000000    0.000000   12.000000    60     0.2000

  Lengths:  12.000000  12.000000  12.000000
  Angles:   90.000000  90.000000  90.000000

Effective grid spacing dv^(1/3) = 0.2000

     iter     time        total  log10-change:  magmom
                         energy  eigst   dens
iter:   1 16:10:21    -2.655998  +1.02           +2.5319
iter:   2 16:10:22    -2.411968  -0.55  -0.74    +2.1596
iter:   3 16:10:23    -0.433606  +0.05  -0.75    +2.0060
iter:   4 16:10:24     0.035806  -1.39  -1.19    +2.0135
iter:   5 16:10:25     0.072992  -2.90  -1.55    +2.0052
iter:   6 16:10:26    -0.025746  -1.95  -1.48    +2.0003
iter:   7 16:10:27    -0.013083  -3.40  -2.15    +2.0005
iter:   8 16:10:28     0.024463  -3.04  -2.33    +2.0001
iter:   9 16:10:29    -0.020030  -3.18  -2.11    +2.0000
iter:  10 16:10:30    -0.017973  -4.40  -2.85    +2.0000
iter:  11 16:10:31    -0.013953  -4.21  -2.94    +2.0000
iter:  12 16:10:32    -0.018492c -4.07  -2.97    +2.0000
iter:  13 16:10:33    -0.018571c -5.45  -3.29    +2.0000
iter:  14 16:10:34    -0.019908c -4.60  -3.38    +2.0000
iter:  15 16:10:35    -0.020218c -5.55  -3.62    +2.0000
iter:  16 16:10:36    -0.019783c -5.71  -3.70    +2.0000
iter:  17 16:10:37    -0.019944c -6.57  -3.70    +2.0000
iter:  18 16:10:38    -0.020253c -5.75  -3.77    +2.0000
iter:  19 16:10:39    -0.020245c -7.37  -3.94    +2.0000
iter:  20 16:10:40    -0.020176c -5.63  -3.97    +2.0000
iter:  21 16:10:41    -0.020254c -6.78  -4.31c   +2.0000
iter:  22 16:10:42    -0.020277c -7.10  -4.59c   +2.0000
iter:  23 16:10:43    -0.020292c -7.09  -4.70c   +2.0000
iter:  24 16:10:44    -0.020290c -7.02  -4.67c   +2.0000
iter:  25 16:10:45    -0.020271c -6.59  -4.71c   +2.0000
iter:  26 16:10:46    -0.020274c -6.34  -5.14c   +2.0000
iter:  27 16:10:47    -0.020274c -5.96  -5.15c   +2.0000
iter:  28 16:10:48    -0.020279c -5.56  -5.03c   +2.0000
iter:  29 16:10:49    -0.020283c -5.18  -5.00c   +2.0000
iter:  30 16:10:50    -0.020289c -4.79  -4.84c   +2.0000
iter:  31 16:10:51    -0.020310c -4.41  -4.67c   +2.0000
iter:  32 16:10:52    -0.020356c -4.02  -4.50c   +2.0000
iter:  33 16:10:53    -0.020473c -3.64  -4.33c   +2.0000
iter:  34 16:10:54    -0.020771c -3.24  -4.14c   +2.0000
iter:  35 16:10:55    -0.021702c -2.78  -3.94    +2.0000
iter:  36 16:10:56    -0.031304  -2.09  -3.67    +2.0000
iter:  37 16:10:57    -3.695285  +0.56  -2.80    +2.0000
iter:  38 16:10:58    -8.879775  +0.43  -1.06    +2.0000
iter:  39 16:10:59    -9.018789  -0.85  -0.87    +2.0000
iter:  40 16:11:00    -9.275137  -1.48  -0.86    +2.0000
iter:  41 16:11:01    -9.285825  -1.93  -0.86    +2.0000
iter:  42 16:11:02    -9.268868  -2.84  -0.86    +2.0000
iter:  43 16:11:03    -9.009847  -2.80  -0.86    +2.0000
iter:  44 16:11:04    -6.998782  -0.95  -0.89    +2.0000
iter:  45 16:11:05    -7.767368  -1.85  -0.90    +2.0000
iter:  46 16:11:06    -7.113801  -1.88  -0.65    +2.0000
iter:  47 16:11:07    -7.430564  -1.59  -1.03    +2.0000
iter:  48 16:11:07    -6.542879  -1.01  -1.18    +2.0000
iter:  49 16:11:08    -6.533224  -1.81  -0.92    +2.0000
iter:  50 16:11:09    -6.784565  -1.44  -0.91    +2.0000
iter:  51 16:11:10    -6.645457  -2.91  -1.23    +2.0000
iter:  52 16:11:11    -6.614159  -2.38  -1.03    +2.0000
iter:  53 16:11:12    -7.003429  -1.62  -1.14    +2.0000
iter:  54 16:11:13    -6.573250  -1.52  -1.25    +2.0000
iter:  55 16:11:14    -6.613720  -2.80  -1.11    +2.0000
iter:  56 16:11:15    -6.543531  -2.12  -1.12    +2.0000
iter:  57 16:11:16    -6.587768  -2.37  -1.06    +2.0000
iter:  58 16:11:17    -6.558024  -2.98  -1.06    +2.0000
iter:  59 16:11:18    -6.590194  -2.15  -1.04    +2.0000
iter:  60 16:11:19    -6.707079  -2.08  -1.04    +2.0000
iter:  61 16:11:20    -6.713897  -2.83  -1.35    +2.0000
iter:  62 16:11:21    -6.749421  -2.97  -1.41    +2.0000
iter:  63 16:11:22    -6.744626  -3.23  -1.69    +2.0000
iter:  64 16:11:23    -6.755838  -2.99  -1.70    +2.0000
iter:  65 16:11:24    -6.751948  -3.48  -2.21    +2.0000
iter:  66 16:11:25    -6.752685c -3.41  -2.10    +2.0000
iter:  67 16:11:26    -6.757566c -3.18  -2.00    +2.0000
iter:  68 16:11:27    -6.755997c -4.29  -2.61    +2.0000
iter:  69 16:11:28    -6.758136c -3.87  -2.44    +2.0000
iter:  70 16:11:28    -6.757509c -5.35  -2.54    +2.0000
iter:  71 16:11:29    -6.756064c -4.11  -2.49    +2.0000
iter:  72 16:11:30    -6.756306c -4.77  -2.46    +2.0000
iter:  73 16:11:31    -6.757971c -4.62  -2.48    +2.0000
iter:  74 16:11:32    -6.757471c -5.09  -2.71    +2.0000
iter:  75 16:11:33    -6.757411c -5.11  -2.65    +2.0000
iter:  76 16:11:34    -6.758103c -4.79  -2.58    +2.0000
iter:  77 16:11:35    -6.758517c -4.54  -2.67    +2.0000
iter:  78 16:11:36    -6.758552c -6.01  -3.23    +2.0000
iter:  79 16:11:37    -6.758583c -6.52  -3.36    +2.0000
iter:  80 16:11:38    -6.758583c -6.52  -3.46    +2.0000
iter:  81 16:11:39    -6.758575c -6.04  -3.57    +2.0000
iter:  82 16:11:40    -6.758581c -6.19  -3.46    +2.0000
iter:  83 16:11:41    -6.758569c -6.63  -3.91    +2.0000
iter:  84 16:11:42    -6.758573c -8.06c -3.94    +2.0000
iter:  85 16:11:43    -6.758576c -6.93  -3.97    +2.0000
iter:  86 16:11:44    -6.758582c -7.32  -3.97    +2.0000
iter:  87 16:11:45    -6.758573c -7.25  -4.17c   +2.0000
iter:  88 16:11:46    -6.758582c -7.61c -3.96    +2.0000
iter:  89 16:11:47    -6.758586c -7.19  -4.24c   +2.0000
iter:  90 16:11:48    -6.758585c -8.49c -4.70c   +2.0000

Converged after 90 iterations.

Dipole moment: (-0.000000, -0.000000, 0.000000) |e|*Ang

Total magnetic moment: (0.000000, 0.000000, 2.000000)
Local magnetic moments:
   0 O  ( 0.000000,  0.000000,  0.685536)
   1 O  ( 0.000000,  0.000000,  0.685536)

Energy contributions relative to reference atoms: (reference = -4081.704602)

Kinetic:        +28.404937
Potential:      -20.891991
External:        +0.000000
XC:             -14.111299
Entropy (-ST):   +0.000000
Local:           -0.160232
--------------------------
Free energy:     -6.758585
Extrapolated:    -6.758585

Spin contamination: 0.022547 electrons
                   Up                     Down
 Band  Eigenvalues  Occupancy  Eigenvalues  Occupancy
    0    -37.14276    1.00000    -36.09910    1.00000
    1    -19.19487    1.00000    -17.41955    1.00000
    2    -15.35667    1.00000    -13.54881    1.00000
    3    -15.35667    1.00000    -13.54881    1.00000
    4    -13.99708    1.00000    -12.94011    1.00000
    5     -4.97614    1.00000     -2.69659    0.00000
    6     -4.97614    1.00000     -2.69596    0.00000
    7     -0.35024    0.00000     -0.18795    0.00000

Fermi level: -3.83636

Gap: 2.280 eV
Transition (v -> c):
  (s=0, k=0, n=6, [0.00, 0.00, 0.00]) -> (s=1, k=0, n=5, [0.00, 0.00, 0.00])

Forces in eV/Ang:
  0 O     0.00000    0.00000   26.53617
  1 O     0.00000    0.00000  -26.53617

System changes: positions 

Initializing position-dependent things.

Density initialized from wave functions
        .----------------------------.  
       /|                            |  
      / |                            |  
     /  |                            |  
    /   |                            |  
   /    |                            |  
  /     |                            |  
 *      |                            |  
 |      |                            |  
 |      |                            |  
 |      |          O                 |  
 |      |                            |  
 |      |          O                 |  
 |      |                            |  
 |      |                            |  
 |      .----------------------------.  
 |     /                            /   
 |    /                            /    
 |   /                            /     
 |  /                            /      
 | /                            /       
 |/                            /        
 *----------------------------*         

Positions:
   0 O      6.000000    6.000000    6.613188    ( 0.0000,  0.0000,  1.0000)
   1 O      6.000000    6.000000    5.386812    ( 0.0000,  0.0000,  1.0000)

Unit cell:
           periodic     x           y           z      points  spacing
  1. axis:    no    12.000000    0.000000    0.000000    60     0.2000
  2. axis:    no     0.000000   12.000000    0.000000    60     0.2000
  3. axis:    no     0.000000    0.000000   12.000000    60     0.2000

  Lengths:  12.000000  12.000000  12.000000
  Angles:   90.000000  90.000000  90.000000

Effective grid spacing dv^(1/3) = 0.2000

     iter     time        total  log10-change:  magmom
                         energy  eigst   dens
iter:   1 16:11:49    -9.193939  +0.15           +2.2731
iter:   2 16:11:50    -9.169788  -1.28  -1.19    +2.0819
iter:   3 16:11:51    -9.226599  -0.23  -1.20    +2.0037
iter:   4 16:11:52    -8.755810  -1.34  -1.24    +2.0133
iter:   5 16:11:53    -8.758079  -2.84  -1.95    +2.0050
iter:   6 16:11:54    -8.747327  -2.07  -1.96    +1.9992
iter:   7 16:11:55    -8.779145  -1.93  -2.31    +2.0004
iter:   8 16:11:56    -8.749094  -2.30  -1.82    +1.9995
iter:   9 16:11:57    -8.748554  -3.21  -2.47    +1.9990
iter:  10 16:11:58    -8.748357c -3.53  -2.69    +1.9999
iter:  11 16:11:59    -8.748363c -4.51  -3.11    +2.0000
iter:  12 16:12:00    -8.748352c -4.28  -3.22    +2.0000
iter:  13 16:12:01    -8.748339c -5.81  -3.44    +2.0000
iter:  14 16:12:02    -8.748339c -6.66  -4.01c   +2.0000
iter:  15 16:12:03    -8.748339c -7.79c -4.23c   +2.0000

Converged after 15 iterations.

Dipole moment: (-0.000000, -0.000000, 0.000000) |e|*Ang

Total magnetic moment: (0.000000, 0.000000, 2.000002)
Local magnetic moments:
   0 O  ( 0.000000,  0.000000,  0.715905)
   1 O  ( 0.000000,  0.000000,  0.715905)

Energy contributions relative to reference atoms: (reference = -4081.704602)

Kinetic:         +3.219689
Potential:       -3.246767
External:        +0.000000
XC:              -8.688023
Entropy (-ST):   +0.000000
Local:           -0.033238
--------------------------
Free energy:     -8.748339
Extrapolated:    -8.748339

Spin contamination: 0.026887 electrons
                   Up                     Down
 Band  Eigenvalues  Occupancy  Eigenvalues  Occupancy
    0    -32.59516    1.00000    -31.38710    1.00000
    1    -20.71614    1.00000    -18.91680    1.00000
    2    -13.45706    1.00000    -12.54333    1.00000
    3    -13.26202    1.00000    -11.41668    1.00000
    4    -13.26202    1.00000    -11.41668    1.00000
    5     -6.81154    1.00000     -4.52447    0.00000
    6     -6.81154    1.00000     -4.52447    0.00000
    7     -0.31189    0.00000     -0.20746    0.00000

Fermi level: -5.66800

Gap: 2.287 eV
Transition (v -> c):
  (s=0, k=0, n=6, [0.00, 0.00, 0.00]) -> (s=1, k=0, n=5, [0.00, 0.00, 0.00])

Forces in eV/Ang:
  0 O     0.00000    0.00000   -0.30923
  1 O     0.00000    0.00000    0.30923

System changes: positions 

Initializing position-dependent things.

Density initialized from wave functions
        .----------------------------.  
       /|                            |  
      / |                            |  
     /  |                            |  
    /   |                            |  
   /    |                            |  
  /     |                            |  
 *      |                            |  
 |      |                            |  
 |      |                            |  
 |      |          O                 |  
 |      |                            |  
 |      |          O                 |  
 |      |                            |  
 |      |                            |  
 |      .----------------------------.  
 |     /                            /   
 |    /                            /    
 |   /                            /     
 |  /                            /      
 | /                            /       
 |/                            /        
 *----------------------------*         

Positions:
   0 O      6.000000    6.000000    6.611534    ( 0.0000,  0.0000,  1.0000)
   1 O      6.000000    6.000000    5.388466    ( 0.0000,  0.0000,  1.0000)

Unit cell:
           periodic     x           y           z      points  spacing
  1. axis:    no    12.000000    0.000000    0.000000    60     0.2000
  2. axis:    no     0.000000   12.000000    0.000000    60     0.2000
  3. axis:    no     0.000000    0.000000   12.000000    60     0.2000

  Lengths:  12.000000  12.000000  12.000000
  Angles:   90.000000  90.000000  90.000000

Effective grid spacing dv^(1/3) = 0.2000

     iter     time        total  log10-change:  magmom
                         energy  eigst   dens
iter:   1 16:12:04    -8.749040  -3.60           +1.9961
iter:   2 16:12:05    -8.749033  -5.04  -3.02    +1.9988
iter:   3 16:12:06    -8.748975c -4.15  -3.03    +2.0000
iter:   4 16:12:07    -8.748944c -5.64  -3.35    +1.9999
iter:   5 16:12:08    -8.748944c -6.96  -3.95    +1.9999
iter:   6 16:12:09    -8.748946c -7.00  -3.96    +2.0000
iter:   7 16:12:10    -8.748944c -6.35  -3.92    +2.0000
iter:   8 16:12:11    -8.748944c -7.36  -4.63c   +2.0000
iter:   9 16:12:12    -8.748944c -8.34c -4.79c   +2.0000

Converged after 9 iterations.

Dipole moment: (-0.000000, -0.000000, 0.000000) |e|*Ang

Total magnetic moment: (0.000000, 0.000000, 1.999997)
Local magnetic moments:
   0 O  ( 0.000000,  0.000000,  0.715604)
   1 O  ( 0.000000,  0.000000,  0.715604)

Energy contributions relative to reference atoms: (reference = -4081.704602)

Kinetic:         +3.533066
Potential:       -3.480211
External:        +0.000000
XC:              -8.766419
Entropy (-ST):   +0.000000
Local:           -0.035380
--------------------------
Free energy:     -8.748944
Extrapolated:    -8.748944

Spin contamination: 0.026819 electrons
                   Up                     Down
 Band  Eigenvalues  Occupancy  Eigenvalues  Occupancy
    0    -32.66281    1.00000    -31.45749    1.00000
    1    -20.68923    1.00000    -18.89011    1.00000
    2    -13.46605    1.00000    -12.54977    1.00000
    3    -13.29086    1.00000    -11.44597    1.00000
    4    -13.29086    1.00000    -11.44597    1.00000
    5     -6.78518    1.00000     -4.49763    0.00000
    6     -6.78518    1.00000     -4.49763    0.00000
    7     -0.31233    0.00000     -0.20735    0.00000

Fermi level: -5.64141

Gap: 2.288 eV
Transition (v -> c):
  (s=0, k=0, n=6, [0.00, 0.00, 0.00]) -> (s=1, k=0, n=5, [0.00, 0.00, 0.00])

Forces in eV/Ang:
  0 O     0.00000    0.00000   -0.04197
  1 O     0.00000    0.00000    0.04197

System changes: positions 

Initializing position-dependent things.

Density initialized from wave functions
        .----------------------------.  
       /|                            |  
      / |                            |  
     /  |                            |  
    /   |                            |  
   /    |                            |  
  /     |                            |  
 *      |                            |  
 |      |                            |  
 |      |                            |  
 |      |          O                 |  
 |      |                            |  
 |      |          O                 |  
 |      |                            |  
 |      |                            |  
 |      .----------------------------.  
 |     /                            /   
 |    /                            /    
 |   /                            /     
 |  /                            /      
 | /                            /       
 |/                            /        
 *----------------------------*         

Positions:
   0 O      6.000000    6.000000    6.611400    ( 0.0000,  0.0000,  1.0000)
   1 O      6.000000    6.000000    5.388600    ( 0.0000,  0.0000,  1.0000)

Unit cell:
           periodic     x           y           z      points  spacing
  1. axis:    no    12.000000    0.000000    0.000000    60     0.2000
  2. axis:    no     0.000000   12.000000    0.000000    60     0.2000
  3. axis:    no     0.000000    0.000000   12.000000    60     0.2000

  Lengths:  12.000000  12.000000  12.000000
  Angles:   90.000000  90.000000  90.000000

Effective grid spacing dv^(1/3) = 0.2000

     iter     time        total  log10-change:  magmom
                         energy  eigst   dens
iter:   1 16:12:13    -8.748956  -5.69           +1.9997
iter:   2 16:12:14    -8.748956  -7.17  -4.06c   +1.9999
iter:   3 16:12:15    -8.748956c -6.18  -4.07c   +2.0000
iter:   4 16:12:16    -8.748955c -7.52c -4.26c   +2.0000

Converged after 4 iterations.

Dipole moment: (-0.000000, -0.000000, 0.000000) |e|*Ang

Total magnetic moment: (0.000000, 0.000000, 1.999987)
Local magnetic moments:
   0 O  ( 0.000000,  0.000000,  0.715589)
   1 O  ( 0.000000,  0.000000,  0.715589)

Energy contributions relative to reference atoms: (reference = -4081.704602)

Kinetic:         +3.549076
Potential:       -3.490975
External:        +0.000000
XC:              -8.772028
Entropy (-ST):   +0.000000
Local:           -0.035028
--------------------------
Free energy:     -8.748955
Extrapolated:    -8.748955

Spin contamination: 0.026813 electrons
                   Up                     Down
 Band  Eigenvalues  Occupancy  Eigenvalues  Occupancy
    0    -32.66836    1.00000    -31.46325    1.00000
    1    -20.68730    1.00000    -18.88820    1.00000
    2    -13.46711    1.00000    -12.55061    1.00000
    3    -13.29329    1.00000    -11.44843    1.00000
    4    -13.29329    1.00000    -11.44843    1.00000
    5     -6.78319    1.00000     -4.49559    0.00000
    6     -6.78319    1.00000     -4.49559    0.00000
    7     -0.31230    0.00000     -0.20722    0.00000

Fermi level: -5.63939

Gap: 2.288 eV
Transition (v -> c):
  (s=0, k=0, n=6, [0.00, 0.00, 0.00]) -> (s=1, k=0, n=5, [0.00, 0.00, 0.00])

Forces in eV/Ang:
  0 O     0.00000    0.00000   -0.02513
  1 O     0.00000    0.00000    0.02513

System changes: positions 

Initializing position-dependent things.

Density initialized from wave functions
        .----------------------------.  
       /|                            |  
      / |                            |  
     /  |                            |  
    /   |                            |  
   /    |                            |  
  /     |                            |  
 *      |                            |  
 |      |                            |  
 |      |                            |  
 |      |          O                 |  
 |      |                            |  
 |      |          O                 |  
 |      |                            |  
 |      |                            |  
 |      .----------------------------.  
 |     /                            /   
 |    /                            /    
 |   /                            /     
 |  /                            /      
 | /                            /       
 |/                            /        
 *----------------------------*         

Positions:
   0 O      6.000000    6.000000    6.611346    ( 0.0000,  0.0000,  1.0000)
   1 O      6.000000    6.000000    5.388654    ( 0.0000,  0.0000,  1.0000)

Unit cell:
           periodic     x           y           z      points  spacing
  1. axis:    no    12.000000    0.000000    0.000000    60     0.2000
  2. axis:    no     0.000000   12.000000    0.000000    60     0.2000
  3. axis:    no     0.000000    0.000000   12.000000    60     0.2000

  Lengths:  12.000000  12.000000  12.000000
  Angles:   90.000000  90.000000  90.000000

Effective grid spacing dv^(1/3) = 0.2000

     iter     time        total  log10-change:  magmom
                         energy  eigst   dens
iter:   1 16:12:17    -8.748958  -6.48           +1.9999
iter:   2 16:12:18    -8.748958  -7.96c -4.45c   +2.0000
iter:   3 16:12:19    -8.748958c -6.92  -4.46c   +2.0000
iter:   4 16:12:20    -8.748958c -8.24c -4.65c   +2.0000

Converged after 4 iterations.

Dipole moment: (-0.000000, -0.000000, 0.000000) |e|*Ang

Total magnetic moment: (0.000000, 0.000000, 1.999994)
Local magnetic moments:
   0 O  ( 0.000000,  0.000000,  0.715577)
   1 O  ( 0.000000,  0.000000,  0.715577)

Energy contributions relative to reference atoms: (reference = -4081.704602)

Kinetic:         +3.556509
Potential:       -3.495790
External:        +0.000000
XC:              -8.774276
Entropy (-ST):   +0.000000
Local:           -0.035401
--------------------------
Free energy:     -8.748958
Extrapolated:    -8.748958

Spin contamination: 0.026812 electrons
                   Up                     Down
 Band  Eigenvalues  Occupancy  Eigenvalues  Occupancy
    0    -32.67057    1.00000    -31.46554    1.00000
    1    -20.68654    1.00000    -18.88746    1.00000
    2    -13.46752    1.00000    -12.55095    1.00000
    3    -13.29429    1.00000    -11.44944    1.00000
    4    -13.29429    1.00000    -11.44944    1.00000
    5     -6.78242    1.00000     -4.49481    0.00000
    6     -6.78242    1.00000     -4.49481    0.00000
    7     -0.31231    0.00000     -0.20720    0.00000

Fermi level: -5.63861

Gap: 2.288 eV
Transition (v -> c):
  (s=0, k=0, n=6, [0.00, 0.00, 0.00]) -> (s=1, k=0, n=5, [0.00, 0.00, 0.00])

Forces in eV/Ang:
  0 O     0.00000    0.00000   -0.01883
  1 O     0.00000    0.00000    0.01883

System changes: positions 

Initializing position-dependent things.

Density initialized from wave functions
        .----------------------------.  
       /|                            |  
      / |                            |  
     /  |                            |  
    /   |                            |  
   /    |                            |  
  /     |                            |  
 *      |                            |  
 |      |                            |  
 |      |                            |  
 |      |          O                 |  
 |      |                            |  
 |      |          O                 |  
 |      |                            |  
 |      |                            |  
 |      .----------------------------.  
 |     /                            /   
 |    /                            /    
 |   /                            /     
 |  /                            /      
 | /                            /       
 |/                            /        
 *----------------------------*         

Positions:
   0 O      6.000000    6.000000    6.611316    ( 0.0000,  0.0000,  1.0000)
   1 O      6.000000    6.000000    5.388684    ( 0.0000,  0.0000,  1.0000)

Unit cell:
           periodic     x           y           z      points  spacing
  1. axis:    no    12.000000    0.000000    0.000000    60     0.2000
  2. axis:    no     0.000000   12.000000    0.000000    60     0.2000
  3. axis:    no     0.000000    0.000000   12.000000    60     0.2000

  Lengths:  12.000000  12.000000  12.000000
  Angles:   90.000000  90.000000  90.000000

Effective grid spacing dv^(1/3) = 0.2000

     iter     time        total  log10-change:  magmom
                         energy  eigst   dens
iter:   1 16:12:21    -8.748959  -7.01           +1.9999
iter:   2 16:12:22    -8.748959  -8.47c -4.71c   +2.0000
iter:   3 16:12:23    -8.748959c -7.47c -4.72c   +2.0000

Converged after 3 iterations.

Dipole moment: (-0.000000, -0.000000, -0.000000) |e|*Ang

Total magnetic moment: (0.000000, 0.000000, 1.999999)
Local magnetic moments:
   0 O  ( 0.000000,  0.000000,  0.715571)
   1 O  ( 0.000000,  0.000000,  0.715571)

Energy contributions relative to reference atoms: (reference = -4081.704602)

Kinetic:         +3.563079
Potential:       -3.500542
External:        +0.000000
XC:              -8.775814
Entropy (-ST):   +0.000000
Local:           -0.035682
--------------------------
Free energy:     -8.748959
Extrapolated:    -8.748959

Spin contamination: 0.026810 electrons
                   Up                     Down
 Band  Eigenvalues  Occupancy  Eigenvalues  Occupancy
    0    -32.67198    1.00000    -31.46701    1.00000
    1    -20.68601    1.00000    -18.88692    1.00000
    2    -13.46764    1.00000    -12.55101    1.00000
    3    -13.29488    1.00000    -11.45004    1.00000
    4    -13.29488    1.00000    -11.45004    1.00000
    5     -6.78196    1.00000     -4.49433    0.00000
    6     -6.78196    1.00000     -4.49433    0.00000
    7     -0.31232    0.00000     -0.20719    0.00000

Fermi level: -5.63815

Gap: 2.288 eV
Transition (v -> c):
  (s=0, k=0, n=6, [0.00, 0.00, 0.00]) -> (s=1, k=0, n=5, [0.00, 0.00, 0.00])

Forces in eV/Ang:
  0 O     0.00000    0.00000   -0.01010
  1 O     0.00000    0.00000    0.01010

System changes: positions 

Initializing position-dependent things.

Density initialized from wave functions
        .----------------------------.  
       /|                            |  
      / |                            |  
     /  |                            |  
    /   |                            |  
   /    |                            |  
  /     |                            |  
 *      |                            |  
 |      |                            |  
 |      |                            |  
 |      |          O                 |  
 |      |                            |  
 |      |          O                 |  
 |      |                            |  
 |      |                            |  
 |      .----------------------------.  
 |     /                            /   
 |    /                            /    
 |   /                            /     
 |  /                            /      
 | /                            /       
 |/                            /        
 *----------------------------*         

Positions:
   0 O      6.000000    6.000000    6.611312    ( 0.0000,  0.0000,  1.0000)
   1 O      6.000000    6.000000    5.388688    ( 0.0000,  0.0000,  1.0000)

Unit cell:
           periodic     x           y           z      points  spacing
  1. axis:    no    12.000000    0.000000    0.000000    60     0.2000
  2. axis:    no     0.000000   12.000000    0.000000    60     0.2000
  3. axis:    no     0.000000    0.000000   12.000000    60     0.2000

  Lengths:  12.000000  12.000000  12.000000
  Angles:   90.000000  90.000000  90.000000

Effective grid spacing dv^(1/3) = 0.2000

     iter     time        total  log10-change:  magmom
                         energy  eigst   dens
iter:   1 16:12:24    -8.748959  -7.85c          +2.0000
iter:   2 16:12:25    -8.748959  -9.21c -5.15c   +2.0000
iter:   3 16:12:26    -8.748959c -8.59c -5.15c   +2.0000

Converged after 3 iterations.

Dipole moment: (-0.000000, -0.000000, 0.000000) |e|*Ang

Total magnetic moment: (0.000000, 0.000000, 2.000000)
Local magnetic moments:
   0 O  ( 0.000000,  0.000000,  0.715569)
   1 O  ( 0.000000,  0.000000,  0.715569)

Energy contributions relative to reference atoms: (reference = -4081.704602)

Kinetic:         +3.561856
Potential:       -3.499377
External:        +0.000000
XC:              -8.775806
Entropy (-ST):   +0.000000
Local:           -0.035632
--------------------------
Free energy:     -8.748959
Extrapolated:    -8.748959

Spin contamination: 0.026810 electrons
                   Up                     Down
 Band  Eigenvalues  Occupancy  Eigenvalues  Occupancy
    0    -32.67199    1.00000    -31.46702    1.00000
    1    -20.68602    1.00000    -18.88695    1.00000
    2    -13.46776    1.00000    -12.55113    1.00000
    3    -13.29491    1.00000    -11.45007    1.00000
    4    -13.29491    1.00000    -11.45007    1.00000
    5     -6.78190    1.00000     -4.49427    0.00000
    6     -6.78190    1.00000     -4.49427    0.00000
    7     -0.31232    0.00000     -0.20719    0.00000

Fermi level: -5.63809

Gap: 2.288 eV
Transition (v -> c):
  (s=0, k=0, n=6, [0.00, 0.00, 0.00]) -> (s=1, k=0, n=5, [0.00, 0.00, 0.00])

Forces in eV/Ang:
  0 O     0.00000    0.00000   -0.01425
  1 O     0.00000    0.00000    0.01425

System changes: positions 

Initializing position-dependent things.

Density initialized from wave functions
        .----------------------------.  
       /|                            |  
      / |                            |  
     /  |                            |  
    /   |                            |  
   /    |                            |  
  /     |                            |  
 *      |                            |  
 |      |                            |  
 |      |                            |  
 |      |          O                 |  
 |      |                            |  
 |      |          O                 |  
 |      |                            |  
 |      |                            |  
 |      .----------------------------.  
 |     /                            /   
 |    /                            /    
 |   /                            /     
 |  /                            /      
 | /                            /       
 |/                            /        
 *----------------------------*         

Positions:
   0 O      6.000000    6.000000    6.611290    ( 0.0000,  0.0000,  1.0000)
   1 O      6.000000    6.000000    5.388710    ( 0.0000,  0.0000,  1.0000)

Unit cell:
           periodic     x           y           z      points  spacing
  1. axis:    no    12.000000    0.000000    0.000000    60     0.2000
  2. axis:    no     0.000000   12.000000    0.000000    60     0.2000
  3. axis:    no     0.000000    0.000000   12.000000    60     0.2000

  Lengths:  12.000000  12.000000  12.000000
  Angles:   90.000000  90.000000  90.000000

Effective grid spacing dv^(1/3) = 0.2000

     iter     time        total  log10-change:  magmom
                         energy  eigst   dens
iter:   1 16:12:27    -8.748960  -7.35           +1.9999
iter:   2 16:12:28    -8.748960  -8.77c -4.89c   +2.0000
iter:   3 16:12:29    -8.748960c -7.88c -4.91c   +2.0000

Converged after 3 iterations.

Dipole moment: (-0.000000, -0.000000, 0.000000) |e|*Ang

Total magnetic moment: (0.000000, 0.000000, 1.999999)
Local magnetic moments:
   0 O  ( 0.000000,  0.000000,  0.715566)
   1 O  ( 0.000000,  0.000000,  0.715566)

Energy contributions relative to reference atoms: (reference = -4081.704602)

Kinetic:         +3.566754
Potential:       -3.503113
External:        +0.000000
XC:              -8.776933
Entropy (-ST):   +0.000000
Local:           -0.035668
--------------------------
Free energy:     -8.748960
Extrapolated:    -8.748960

Spin contamination: 0.026809 electrons
                   Up                     Down
 Band  Eigenvalues  Occupancy  Eigenvalues  Occupancy
    0    -32.67298    1.00000    -31.46805    1.00000
    1    -20.68563    1.00000    -18.88655    1.00000
    2    -13.46783    1.00000    -12.55117    1.00000
    3    -13.29532    1.00000    -11.45048    1.00000
    4    -13.29532    1.00000    -11.45048    1.00000
    5     -6.78155    1.00000     -4.49392    0.00000
    6     -6.78155    1.00000     -4.49392    0.00000
    7     -0.31232    0.00000     -0.20718    0.00000

Fermi level: -5.63774

Gap: 2.288 eV
Transition (v -> c):
  (s=0, k=0, n=6, [0.00, 0.00, 0.00]) -> (s=1, k=0, n=5, [0.00, 0.00, 0.00])

Forces in eV/Ang:
  0 O     0.00000    0.00000   -0.00814
  1 O     0.00000    0.00000    0.00814

Timing:                                      incl.     excl.
-------------------------------------------------------------------
Density initialized from wave functions:     4.101     0.716   0.3% |
 Symmetrize density:                         3.385     3.385   1.6% ||
Forces:                                      0.776     0.776   0.4% |
Hamiltonian:                                 4.295     0.040   0.0% |
 Atomic:                                     0.002     0.002   0.0% |
  XC Correction:                             0.000     0.000   0.0% |
 Calculate atomic Hamiltonians:              0.096     0.096   0.0% |
 Communicate:                                0.595     0.595   0.3% |
 Initialize Hamiltonian:                     0.001     0.001   0.0% |
 Poisson:                                    0.016     0.016   0.0% |
 XC 3D grid:                                 3.546     3.546   1.7% ||
LCAO initialization:                         0.063     0.020   0.0% |
 LCAO eigensolver:                           0.003     0.000   0.0% |
  Calculate projections:                     0.000     0.000   0.0% |
  DenseAtomicCorrection:                     0.000     0.000   0.0% |
  Distribute overlap matrix:                 0.001     0.001   0.0% |
  Orbital Layouts:                           0.000     0.000   0.0% |
  Potential matrix:                          0.002     0.002   0.0% |
 LCAO to grid:                               0.036     0.036   0.0% |
 Set positions (LCAO WFS):                   0.004     0.001   0.0% |
  Basic WFS set positions:                   0.001     0.001   0.0% |
  Basis functions set positions:             0.000     0.000   0.0% |
  P tci:                                     0.000     0.000   0.0% |
  ST tci:                                    0.000     0.000   0.0% |
  mktci:                                     0.001     0.001   0.0% |
PWDescriptor:                                0.011     0.011   0.0% |
Redistribute:                                0.005     0.005   0.0% |
SCF-cycle:                                 199.820     0.184   0.1% |
 Davidson:                                  20.369     2.456   1.2% |
  Apply H:                                   4.090     4.009   1.9% ||
   HMM T:                                    0.081     0.081   0.0% |
  Subspace diag:                             4.562     0.034   0.0% |
   calc_h_matrix:                            4.310     0.184   0.1% |
    Apply H:                                 4.127     4.038   1.9% ||
     HMM T:                                  0.088     0.088   0.0% |
   diagonalize:                              0.107     0.107   0.1% |
   rotate_psi:                               0.112     0.112   0.1% |
  calc. matrices:                            8.915     0.994   0.5% |
   Apply H:                                  7.921     7.752   3.7% ||
    HMM T:                                   0.169     0.169   0.1% |
  diagonalize:                               0.186     0.186   0.1% |
  rotate_psi:                                0.161     0.161   0.1% |
 Density:                                   93.455     0.004   0.0% |
  Atomic density matrices:                   0.230     0.230   0.1% |
  Mix:                                      14.089    14.089   6.7% |--|
  Multipole moments:                         0.022     0.022   0.0% |
  Pseudo density:                           79.109     2.522   1.2% |
   Symmetrize density:                      76.587    76.587  36.4% |--------------|
 Hamiltonian:                               85.781     0.772   0.4% |
  Atomic:                                    0.047     0.046   0.0% |
   XC Correction:                            0.001     0.001   0.0% |
  Calculate atomic Hamiltonians:             2.022     2.022   1.0% |
  Communicate:                              12.049    12.049   5.7% |-|
  Poisson:                                   0.299     0.299   0.1% |
  XC 3D grid:                               70.592    70.592  33.6% |------------|
 Orthonormalize:                             0.031     0.002   0.0% |
  calc_s_matrix:                             0.006     0.006   0.0% |
  inverse-cholesky:                          0.003     0.003   0.0% |
  projections:                               0.018     0.018   0.0% |
  rotate_psi_s:                              0.002     0.002   0.0% |
Set symmetry:                                0.003     0.003   0.0% |
Other:                                       1.319     1.319   0.6% |
-------------------------------------------------------------------
Total:                                               210.393 100.0%

Memory usage: 425.41 MiB
Date: Tue Mar  7 16:12:30 2023
