2
Lattice="12.0 0.0 0.0 0.0 12.0 0.0 0.0 0.0 12.0" Properties=species:S:1:pos:R:3:initial_magmoms:R:1:magmoms:R:1 energy=-8.727713107342007 dipole="-2.655145976042376e-14 -2.592850441294699e-14 -2.881097168925196e-15" magmom=1.9999999999982658 free_energy=-8.727713107342007 pbc="F F F"
O        6.00000000       6.00000000       6.62297800       1.00000000       0.71734298
O        6.00000000       6.00000000       5.37702200       1.00000000       0.71734298
