2
Lattice="12.0 0.0 0.0 0.0 12.0 0.0 0.0 0.0 12.0" Properties=species:S:1:pos:R:3:initial_magmoms:R:1:forces:R:3:magmoms:R:1 energy=-8.748959665820706 dipole="-2.5401426123832712e-14 -2.636435390667688e-14 1.4018829827222017e-12" magmom=1.9999994119816669 free_energy=-8.748959665820706 pbc="F F F"
O        6.00000000       6.00000000       6.61129014       1.00000000       0.00000000       0.00000000      -0.00814046       0.71556572
O        6.00000000       6.00000000       5.38870986       1.00000000       0.00000000       0.00000000       0.00814046       0.71556572
