
  ___ ___ ___ _ _ _  
 |   |   |_  | | | | 
 | | | | | . | | | | 
 |__ |  _|___|_____|  22.8.0
 |___|_|             

User:   liljav@vera08-1
Date:   Thu Feb  2 13:25:15 2023
Arch:   x86_64
Pid:    4003809
CWD:    /cephyr/users/liljav/Vera/TIF320/TIF320-Computational-materials-and-molecular-physics-Assignments
Python: 3.10.4
gpaw:   /apps/Arch/software/GPAW/22.8.0-foss-2022a/lib/python3.10/site-packages/gpaw
_gpaw:  /apps/Arch/software/GPAW/22.8.0-foss-2022a/lib/python3.10/site-packages/
        _gpaw.cpython-310-x86_64-linux-gnu.so
ase:    /apps/Arch/software/ASE/3.22.1-foss-2022a/lib/python3.10/site-packages/ase (version 3.22.1)
numpy:  /apps/Arch/software/SciPy-bundle/2022.05-foss-2022a/lib/python3.10/site-packages/numpy (version 1.22.3)
scipy:  /apps/Arch/software/SciPy-bundle/2022.05-foss-2022a/lib/python3.10/site-packages/scipy (version 1.8.1)
libxc:  5.2.3
units:  Angstrom and eV
cores: 1
OpenMP: False
OMP_NUM_THREADS: 1

Input parameters:
  basis: dzp
  h: 0.25
  mode: lcao
  nbands: 10
  occupations: {fixmagmom: False,
                name: fermi-dirac,
                width: 0.05}
  setups: {Na: 1}

System changes: positions, numbers, cell, pbc, initial_charges, initial_magmoms 

Initialize ...

species:
  Na:
    name: Sodium
    id: fa5c50181d04022fed15b2593599c257
    Z: 11.0
    valence: 1
    core: 10
    charge: 0.0
    file: /apps/Common/software/GPAW-setups/0.9.20000/Na.1.LDA.gz
    compensation charges: {type: gauss,
                           rc: 0.43,
                           lmax: 2}
    cutoffs: {filter: 2.36,
              core: 3.60}
    valence states:
      #              energy  rcut
      - 3s(1.00)    -2.819   1.349
      - 3p(0.00)    -0.774   1.349
      -  s          24.392   1.349
  
    # LCAO basis set for Na:
    #   Name: 1.dzp
    #   File: /apps/Common/software/GPAW-setups/0.9.20000/Na.1.dzp.basis.gz
    #   Number of radial functions: 3
    #   Number of spherical harmonics: 5
    #     l=0, rc=11.7656 Bohr: 3s-sz confined orbital
    #     l=0, rc=7.1094 Bohr: 3s-dz split-valence wave
    #     l=1, rc=11.7656 Bohr: p-type Gaussian polarization
    #   Number of RI-basis functions 0

Reference energy: -26392.251304  # eV

Spin-paired calculation

Convergence criteria:
 Maximum [total energy] change in last 3 cyles: 0.0005 eV / electron
 Maximum integral of absolute [dens]ity change: 0.0001 electrons / valence electron
 Maximum integral of absolute [eigenst]ate change: 4e-08 eV^2 / valence electron
 Maximum number of scf [iter]ations: 333
 (Square brackets indicate name in SCF output, whereas a 'c' in
 the SCF output indicates the quantity has converged.)

Symmetries present (total): 1

  ( 1  0  0)
  ( 0  1  0)
  ( 0  0  1)

1 k-point (Gamma)
1 k-point in the irreducible part of the Brillouin zone
       k-points in crystal coordinates                weights
   0:     0.00000000    0.00000000    0.00000000          1/1

Wave functions: LCAO
  Diagonalizer: Serial LAPACK
  Atomic Correction: dense with blas
  Data-type: float
 

Occupation numbers: Fermi-Dirac:
  width: 0.0500  # eV
 

Eigensolver
   LCAO using direct dense diagonalizer 

Densities:
  Coarse grid: 64*64*64 grid
  Fine grid: 128*128*128 grid
  Total Charge: 0.000000 

Density mixing:
  Method: separate
  Backend: pulay
  Linear mixing parameter: 0.25
  old densities: 3
  Damping of long wavelength oscillations: 1  # (no daming) 

Hamiltonian:
  XC and Coulomb potentials evaluated on a 128*128*128 grid
  Using the LDA Exchange-Correlation functional
  Interpolation: tri-quintic (5. degree polynomial)
  Poisson solver: FastPoissonSolver using
    Stencil: 6*3+1=19 point O(h^6) finite-difference Laplacian
    FFT axes: []
    FST axes: [0, 1, 2]
 

Memory estimate:
  Process memory now: 414.02 MiB
  Calculator: 127.06 MiB
    Density: 80.09 MiB
      Arrays: 50.70 MiB
      Localized functions: 17.94 MiB
      Mixer: 11.45 MiB
    Hamiltonian: 34.46 MiB
      Arrays: 33.16 MiB
      XC: 0.00 MiB
      Poisson: 0.00 MiB
      vbar: 1.29 MiB
    Wavefunctions: 12.52 MiB
      C [qnM]: 0.00 MiB
      S, T [2 x qmm]: 0.01 MiB
      P [aqMi]: 0.00 MiB
      BasisFunctions: 12.50 MiB
      Eigensolver: 0.00 MiB

Total number of cores used: 1

Number of atoms: 6
Number of atomic orbitals: 30
Number of bands in calculation: 10
Number of valence electrons: 6
Bands to converge: occupied

... initialized

Initializing position-dependent things.

Density initialized from atomic densities
           .--------------------------------------.  
          /|                                      |  
         / |                                      |  
        /  |                                      |  
       /   |                                      |  
      /    |                                      |  
     /     |                                      |  
    /      |                                      |  
   /       |                                      |  
  /        |                                      |  
 *         |           Na                         |  
 |         |                                      |  
 |         |                Na                    |  
 |         |                                      |  
 |         |            Na                        |  
 |         |                    Na                |  
 |         |                                      |  
 |         |                Na                    |  
 |         |                                      |  
 |         |             Na                       |  
 |         .--------------------------------------.  
 |        /                                      /   
 |       /                                      /    
 |      /                                      /     
 |     /                                      /      
 |    /                                      /       
 |   /                                      /        
 |  /                                      /         
 | /                                      /          
 |/                                      /           
 *--------------------------------------*            

Positions:
   0 Na    11.424955    5.046215    9.661160    ( 0.0000,  0.0000,  0.0000)
   1 Na     9.091214    7.135542   10.719357    ( 0.0000,  0.0000,  0.0000)
   2 Na     6.710298    9.263471   11.516303    ( 0.0000,  0.0000,  0.0000)
   3 Na     7.680133    8.011559    5.125248    ( 0.0000,  0.0000,  0.0000)
   4 Na     9.624253    6.463545    7.292195    ( 0.0000,  0.0000,  0.0000)
   5 Na     7.055205    8.690646    8.283979    ( 0.0000,  0.0000,  0.0000)

Unit cell:
           periodic     x           y           z      points  spacing
  1. axis:    no    16.000000    0.000000    0.000000    64     0.2500
  2. axis:    no     0.000000   16.000000    0.000000    64     0.2500
  3. axis:    no     0.000000    0.000000   16.000000    64     0.2500

  Lengths:  16.000000  16.000000  16.000000
  Angles:   90.000000  90.000000  90.000000

Effective grid spacing dv^(1/3) = 0.2500

     iter     time        total  log10-change:
                         energy  eigst   dens
iter:   1 13:25:17    -5.137110       c
iter:   2 13:25:18    -4.998569       c -0.64
iter:   3 13:25:18    -4.940656       c -0.84
iter:   4 13:25:19    -4.933837       c -1.24
iter:   5 13:25:19    -4.933784       c -2.08
iter:   6 13:25:20    -4.933793c      c -2.32
iter:   7 13:25:20    -4.933795c      c -2.49
iter:   8 13:25:21    -4.933795c      c -3.53
iter:   9 13:25:22    -4.933795c      c -3.75
iter:  10 13:25:22    -4.933795c      c -4.22c

Converged after 10 iterations.

Dipole moment: (0.000483, -0.001078, 0.002902) |e|*Ang

Energy contributions relative to reference atoms: (reference = -26392.251304)

Kinetic:        +19.193401
Potential:      -17.112915
External:        +0.000000
XC:              -7.035516
Entropy (-ST):   -0.000002
Local:           +0.021236
--------------------------
Free energy:     -4.933796
Extrapolated:    -4.933795

 Band  Eigenvalues  Occupancy
    0     -4.20325    2.00000
    1     -3.13372    2.00000
    2     -3.13203    2.00000
    3     -1.63066    0.00000
    4     -1.55359    0.00000
    5     -1.54922    0.00000
    6      2.06589    0.00000
    7      2.06820    0.00000
    8      2.45416    0.00000
    9      3.37789    0.00000

Fermi level: -2.37303

Gap: 1.501 eV
Transition (v -> c):
  (s=0, k=0, n=2, [0.00, 0.00, 0.00]) -> (s=0, k=0, n=3, [0.00, 0.00, 0.00])

Forces in eV/Ang:
  0 Na   -0.00258    0.00295    0.00215
  1 Na    0.00474   -0.00481   -0.00061
  2 Na   -0.00291   -0.00021   -0.00090
  3 Na    0.00009   -0.00173   -0.00394
  4 Na   -0.00207    0.00129   -0.00029
  5 Na    0.00311    0.00276    0.00326

System changes: positions 

Initializing position-dependent things.

Density initialized from wave functions
           .--------------------------------------.  
          /|                                      |  
         / |                                      |  
        /  |                                      |  
       /   |                                      |  
      /    |                                      |  
     /     |                                      |  
    /      |                                      |  
   /       |                                      |  
  /        |                                      |  
 *         |           Na                         |  
 |         |                                      |  
 |         |                Na                    |  
 |         |                                      |  
 |         |            Na                        |  
 |         |                    Na                |  
 |         |                                      |  
 |         |                Na                    |  
 |         |                                      |  
 |         |             Na                       |  
 |         .--------------------------------------.  
 |        /                                      /   
 |       /                                      /    
 |      /                                      /     
 |     /                                      /      
 |    /                                      /       
 |   /                                      /        
 |  /                                      /         
 | /                                      /          
 |/                                      /           
 *--------------------------------------*            

Positions:
   0 Na    11.333631    5.150601    9.737181    ( 0.0000,  0.0000,  0.0000)
   1 Na     9.258935    6.965267   10.697713    ( 0.0000,  0.0000,  0.0000)
   2 Na     6.607481    9.255959   11.484384    ( 0.0000,  0.0000,  0.0000)
   3 Na     7.683364    7.950351    4.985694    ( 0.0000,  0.0000,  0.0000)
   4 Na     9.550911    6.509064    7.281824    ( 0.0000,  0.0000,  0.0000)
   5 Na     7.165362    8.788131    8.399476    ( 0.0000,  0.0000,  0.0000)

Unit cell:
           periodic     x           y           z      points  spacing
  1. axis:    no    16.000000    0.000000    0.000000    64     0.2500
  2. axis:    no     0.000000   16.000000    0.000000    64     0.2500
  3. axis:    no     0.000000    0.000000   16.000000    64     0.2500

  Lengths:  16.000000  16.000000  16.000000
  Angles:   90.000000  90.000000  90.000000

Effective grid spacing dv^(1/3) = 0.2500

     iter     time        total  log10-change:
                         energy  eigst   dens
iter:   1 13:25:23    -4.860421       c
iter:   2 13:25:24    -4.845118       c -1.29
iter:   3 13:25:24    -4.842896       c -1.70
iter:   4 13:25:25    -4.842385c      c -1.96
iter:   5 13:25:25    -4.842369c      c -2.56
iter:   6 13:25:26    -4.842361c      c -2.73
iter:   7 13:25:27    -4.842361c      c -3.19
iter:   8 13:25:27    -4.842361c      c -3.75
iter:   9 13:25:28    -4.842361c      c -4.07c

Converged after 9 iterations.

Dipole moment: (0.040335, -0.032480, -0.014891) |e|*Ang

Energy contributions relative to reference atoms: (reference = -26392.251304)

Kinetic:        +20.050830
Potential:      -17.767448
External:        +0.000000
XC:              -7.147423
Entropy (-ST):   -0.000003
Local:           +0.021681
--------------------------
Free energy:     -4.842362
Extrapolated:    -4.842361

 Band  Eigenvalues  Occupancy
    0     -4.21669    2.00000
    1     -3.17366    2.00000
    2     -3.09000    2.00000
    3     -1.67257    0.00000
    4     -1.57236    0.00000
    5     -1.48611    0.00000
    6      1.93103    0.00000
    7      2.21772    0.00000
    8      2.48374    0.00000
    9      3.22942    0.00000

Fermi level: -2.38067

Gap: 1.417 eV
Transition (v -> c):
  (s=0, k=0, n=2, [0.00, 0.00, 0.00]) -> (s=0, k=0, n=3, [0.00, 0.00, 0.00])

Forces in eV/Ang:
  0 Na    0.23574   -0.20860   -0.09953
  1 Na   -0.32010    0.28299    0.13934
  2 Na    0.06879   -0.05277    0.03925
  3 Na    0.00606    0.01425    0.11346
  4 Na    0.00057   -0.00344   -0.05900
  5 Na    0.00994   -0.03238   -0.13185

System changes: positions 

Initializing position-dependent things.

Density initialized from wave functions
           .--------------------------------------.  
          /|                                      |  
         / |                                      |  
        /  |                                      |  
       /   |                                      |  
      /    |                                      |  
     /     |                                      |  
    /      |                                      |  
   /       |                                      |  
  /        |                                      |  
 *         |           Na                         |  
 |         |                                      |  
 |         |                Na                    |  
 |         |                                      |  
 |         |            Na                        |  
 |         |                    Na                |  
 |         |                                      |  
 |         |                Na                    |  
 |         |                                      |  
 |         |             Na                       |  
 |         .--------------------------------------.  
 |        /                                      /   
 |       /                                      /    
 |      /                                      /     
 |     /                                      /      
 |    /                                      /       
 |   /                                      /        
 |  /                                      /         
 | /                                      /          
 |/                                      /           
 *--------------------------------------*            

Positions:
   0 Na    11.471359    5.040040    9.697001    ( 0.0000,  0.0000,  0.0000)
   1 Na     9.092891    7.101506   10.794636    ( 0.0000,  0.0000,  0.0000)
   2 Na     6.611131    9.211719   11.499300    ( 0.0000,  0.0000,  0.0000)
   3 Na     7.689580    7.931961    5.006120    ( 0.0000,  0.0000,  0.0000)
   4 Na     9.516166    6.528250    7.231411    ( 0.0000,  0.0000,  0.0000)
   5 Na     7.225862    8.809964    8.353348    ( 0.0000,  0.0000,  0.0000)

Unit cell:
           periodic     x           y           z      points  spacing
  1. axis:    no    16.000000    0.000000    0.000000    64     0.2500
  2. axis:    no     0.000000   16.000000    0.000000    64     0.2500
  3. axis:    no     0.000000    0.000000   16.000000    64     0.2500

  Lengths:  16.000000  16.000000  16.000000
  Angles:   90.000000  90.000000  90.000000

Effective grid spacing dv^(1/3) = 0.2500

     iter     time        total  log10-change:
                         energy  eigst   dens
iter:   1 13:25:29    -4.940686       c
iter:   2 13:25:29    -4.910298       c -1.14
iter:   3 13:25:30    -4.907024       c -1.62
iter:   4 13:25:30    -4.906262       c -1.85
iter:   5 13:25:31    -4.906238c      c -2.33
iter:   6 13:25:32    -4.906230c      c -2.57
iter:   7 13:25:32    -4.906230c      c -3.02
iter:   8 13:25:33    -4.906229c      c -3.30
iter:   9 13:25:33    -4.906229c      c -3.89
iter:  10 13:25:34    -4.906229c      c -4.35c

Converged after 10 iterations.

Dipole moment: (-0.046715, 0.044286, -0.025691) |e|*Ang

Energy contributions relative to reference atoms: (reference = -26392.251304)

Kinetic:        +18.301251
Potential:      -16.388845
External:        +0.000000
XC:              -6.839163
Entropy (-ST):   -0.000003
Local:           +0.020529
--------------------------
Free energy:     -4.906231
Extrapolated:    -4.906229

 Band  Eigenvalues  Occupancy
    0     -4.19644    2.00000
    1     -3.16698    2.00000
    2     -3.08625    2.00000
    3     -1.68765    0.00000
    4     -1.57267    0.00000
    5     -1.52040    0.00000
    6      2.04335    0.00000
    7      2.17969    0.00000
    8      2.48732    0.00000
    9      3.29007    0.00000

Fermi level: -2.38559

Gap: 1.399 eV
Transition (v -> c):
  (s=0, k=0, n=2, [0.00, 0.00, 0.00]) -> (s=0, k=0, n=3, [0.00, 0.00, 0.00])

Forces in eV/Ang:
  0 Na   -0.07016    0.05210   -0.04275
  1 Na    0.02604   -0.02288   -0.04067
  2 Na    0.00485    0.00587    0.02572
  3 Na   -0.03500    0.05058    0.05492
  4 Na    0.10432   -0.08186    0.10343
  5 Na   -0.02908   -0.00524   -0.10103

System changes: positions 

Initializing position-dependent things.

Density initialized from wave functions
           .--------------------------------------.  
          /|                                      |  
         / |                                      |  
        /  |                                      |  
       /   |                                      |  
      /    |                                      |  
     /     |                                      |  
    /      |                                      |  
   /       |                                      |  
  /        |                                      |  
 *         |           Na                         |  
 |         |                                      |  
 |         |                Na                    |  
 |         |                                      |  
 |         |            Na                        |  
 |         |                    Na                |  
 |         |                                      |  
 |         |                Na                    |  
 |         |                                      |  
 |         |             Na                       |  
 |         .--------------------------------------.  
 |        /                                      /   
 |       /                                      /    
 |      /                                      /     
 |     /                                      /      
 |    /                                      /       
 |   /                                      /        
 |  /                                      /         
 | /                                      /          
 |/                                      /           
 *--------------------------------------*            

Positions:
   0 Na    11.425573    5.062767    9.654025    ( 0.0000,  0.0000,  0.0000)
   1 Na     9.091523    7.113785   10.751907    ( 0.0000,  0.0000,  0.0000)
   2 Na     6.651059    9.230003   11.522554    ( 0.0000,  0.0000,  0.0000)
   3 Na     7.665618    7.990030    5.085254    ( 0.0000,  0.0000,  0.0000)
   4 Na     9.615517    6.456918    7.311196    ( 0.0000,  0.0000,  0.0000)
   5 Na     7.151268    8.764878    8.262277    ( 0.0000,  0.0000,  0.0000)

Unit cell:
           periodic     x           y           z      points  spacing
  1. axis:    no    16.000000    0.000000    0.000000    64     0.2500
  2. axis:    no     0.000000   16.000000    0.000000    64     0.2500
  3. axis:    no     0.000000    0.000000   16.000000    64     0.2500

  Lengths:  16.000000  16.000000  16.000000
  Angles:   90.000000  90.000000  90.000000

Effective grid spacing dv^(1/3) = 0.2500

     iter     time        total  log10-change:
                         energy  eigst   dens
iter:   1 13:25:35    -4.939032       c
iter:   2 13:25:36    -4.932914       c -1.48
iter:   3 13:25:36    -4.932075       c -1.89
iter:   4 13:25:37    -4.931904c      c -2.14
iter:   5 13:25:37    -4.931900c      c -2.71
iter:   6 13:25:38    -4.931899c      c -2.89
iter:   7 13:25:38    -4.931899c      c -3.47
iter:   8 13:25:39    -4.931899c      c -3.79
iter:   9 13:25:40    -4.931899c      c -4.06c

Converged after 9 iterations.

Dipole moment: (0.004211, -0.001292, -0.008659) |e|*Ang

Energy contributions relative to reference atoms: (reference = -26392.251304)

Kinetic:        +18.846776
Potential:      -16.835336
External:        +0.000000
XC:              -6.963937
Entropy (-ST):   -0.000002
Local:           +0.020600
--------------------------
Free energy:     -4.931899
Extrapolated:    -4.931899

 Band  Eigenvalues  Occupancy
    0     -4.19910    2.00000
    1     -3.13701    2.00000
    2     -3.12509    2.00000
    3     -1.64185    0.00000
    4     -1.56445    0.00000
    5     -1.54125    0.00000
    6      2.06414    0.00000
    7      2.10067    0.00000
    8      2.46035    0.00000
    9      3.37033    0.00000

Fermi level: -2.37638

Gap: 1.483 eV
Transition (v -> c):
  (s=0, k=0, n=2, [0.00, 0.00, 0.00]) -> (s=0, k=0, n=3, [0.00, 0.00, 0.00])

Forces in eV/Ang:
  0 Na    0.00968   -0.01006    0.01068
  1 Na   -0.01779    0.01612   -0.00645
  2 Na    0.01752   -0.00936   -0.02284
  3 Na    0.01379   -0.00408    0.02473
  4 Na   -0.01189    0.01151   -0.02485
  5 Na   -0.01025   -0.00374    0.01749

System changes: positions 

Initializing position-dependent things.

Density initialized from wave functions
           .--------------------------------------.  
          /|                                      |  
         / |                                      |  
        /  |                                      |  
       /   |                                      |  
      /    |                                      |  
     /     |                                      |  
    /      |                                      |  
   /       |                                      |  
  /        |                                      |  
 *         |           Na                         |  
 |         |                                      |  
 |         |                Na                    |  
 |         |                                      |  
 |         |            Na                        |  
 |         |                    Na                |  
 |         |                                      |  
 |         |                Na                    |  
 |         |                                      |  
 |         |             Na                       |  
 |         .--------------------------------------.  
 |        /                                      /   
 |       /                                      /    
 |      /                                      /     
 |     /                                      /      
 |    /                                      /       
 |   /                                      /        
 |  /                                      /         
 | /                                      /          
 |/                                      /           
 *--------------------------------------*            

Positions:
   0 Na    11.422867    5.054836    9.664004    ( 0.0000,  0.0000,  0.0000)
   1 Na     9.088463    7.127977   10.726272    ( 0.0000,  0.0000,  0.0000)
   2 Na     6.691332    9.243308   11.506194    ( 0.0000,  0.0000,  0.0000)
   3 Na     7.679572    8.001062    5.121285    ( 0.0000,  0.0000,  0.0000)
   4 Na     9.618106    6.463294    7.292718    ( 0.0000,  0.0000,  0.0000)
   5 Na     7.093279    8.724192    8.281725    ( 0.0000,  0.0000,  0.0000)

Unit cell:
           periodic     x           y           z      points  spacing
  1. axis:    no    16.000000    0.000000    0.000000    64     0.2500
  2. axis:    no     0.000000   16.000000    0.000000    64     0.2500
  3. axis:    no     0.000000    0.000000   16.000000    64     0.2500

  Lengths:  16.000000  16.000000  16.000000
  Angles:   90.000000  90.000000  90.000000

Effective grid spacing dv^(1/3) = 0.2500

     iter     time        total  log10-change:
                         energy  eigst   dens
iter:   1 13:25:41    -4.934292       c
iter:   2 13:25:41    -4.933951       c -2.10
iter:   3 13:25:42    -4.933908c      c -2.51
iter:   4 13:25:42    -4.933896c      c -2.72
iter:   5 13:25:43    -4.933895c      c -3.39
iter:   6 13:25:43    -4.933895c      c -3.59
iter:   7 13:25:44    -4.933895c      c -4.17c

Converged after 7 iterations.

Dipole moment: (0.000219, 0.000465, 0.000106) |e|*Ang

Energy contributions relative to reference atoms: (reference = -26392.251304)

Kinetic:        +19.298139
Potential:      -17.196236
External:        +0.000000
XC:              -7.056586
Entropy (-ST):   -0.000002
Local:           +0.020788
--------------------------
Free energy:     -4.933896
Extrapolated:    -4.933895

 Band  Eigenvalues  Occupancy
    0     -4.20492    2.00000
    1     -3.13414    2.00000
    2     -3.13245    2.00000
    3     -1.62877    0.00000
    4     -1.55222    0.00000
    5     -1.54889    0.00000
    6      2.05969    0.00000
    7      2.06500    0.00000
    8      2.45238    0.00000
    9      3.37612    0.00000

Fermi level: -2.37244

Gap: 1.504 eV
Transition (v -> c):
  (s=0, k=0, n=2, [0.00, 0.00, 0.00]) -> (s=0, k=0, n=3, [0.00, 0.00, 0.00])

Forces in eV/Ang:
  0 Na    0.00060   -0.00117    0.00139
  1 Na    0.00234   -0.00227   -0.00195
  2 Na   -0.00259    0.00359    0.00522
  3 Na   -0.00022    0.00153   -0.00360
  4 Na    0.00228   -0.00096    0.00112
  5 Na   -0.00174   -0.00054   -0.00219

System changes: positions 

Initializing position-dependent things.

Density initialized from wave functions
           .--------------------------------------.  
          /|                                      |  
         / |                                      |  
        /  |                                      |  
       /   |                                      |  
      /    |                                      |  
     /     |                                      |  
    /      |                                      |  
   /       |                                      |  
  /        |                                      |  
 *         |           Na                         |  
 |         |                                      |  
 |         |                Na                    |  
 |         |                                      |  
 |         |            Na                        |  
 |         |                    Na                |  
 |         |                                      |  
 |         |                Na                    |  
 |         |                                      |  
 |         |             Na                       |  
 |         .--------------------------------------.  
 |        /                                      /   
 |       /                                      /    
 |      /                                      /     
 |     /                                      /      
 |    /                                      /       
 |   /                                      /        
 |  /                                      /         
 | /                                      /          
 |/                                      /           
 *--------------------------------------*            

Positions:
   0 Na    11.424176    5.051245    9.666273    ( 0.0000,  0.0000,  0.0000)
   1 Na     9.092394    7.127154   10.722024    ( 0.0000,  0.0000,  0.0000)
   2 Na     6.694308    9.252451   11.512701    ( 0.0000,  0.0000,  0.0000)
   3 Na     7.680569    8.004438    5.118123    ( 0.0000,  0.0000,  0.0000)
   4 Na     9.619860    6.464263    7.291364    ( 0.0000,  0.0000,  0.0000)
   5 Na     7.080827    8.714273    8.283378    ( 0.0000,  0.0000,  0.0000)

Unit cell:
           periodic     x           y           z      points  spacing
  1. axis:    no    16.000000    0.000000    0.000000    64     0.2500
  2. axis:    no     0.000000   16.000000    0.000000    64     0.2500
  3. axis:    no     0.000000    0.000000   16.000000    64     0.2500

  Lengths:  16.000000  16.000000  16.000000
  Angles:   90.000000  90.000000  90.000000

Effective grid spacing dv^(1/3) = 0.2500

     iter     time        total  log10-change:
                         energy  eigst   dens
iter:   1 13:25:45    -4.933953       c
iter:   2 13:25:46    -4.933944       c -2.89
iter:   3 13:25:46    -4.933943c      c -3.20
iter:   4 13:25:47    -4.933942c      c -3.44
iter:   5 13:25:47    -4.933942c      c -4.11c

Converged after 5 iterations.

Dipole moment: (0.001217, -0.000830, 0.000479) |e|*Ang

Energy contributions relative to reference atoms: (reference = -26392.251304)

Kinetic:        +19.190017
Potential:      -17.110873
External:        +0.000000
XC:              -7.034208
Entropy (-ST):   -0.000002
Local:           +0.021123
--------------------------
Free energy:     -4.933943
Extrapolated:    -4.933942

 Band  Eigenvalues  Occupancy
    0     -4.20340    2.00000
    1     -3.13342    2.00000
    2     -3.13217    2.00000
    3     -1.63173    0.00000
    4     -1.55131    0.00000
    5     -1.55090    0.00000
    6      2.06593    0.00000
    7      2.06864    0.00000
    8      2.45393    0.00000
    9      3.37523    0.00000

Fermi level: -2.37332

Gap: 1.500 eV
Transition (v -> c):
  (s=0, k=0, n=2, [0.00, 0.00, 0.00]) -> (s=0, k=0, n=3, [0.00, 0.00, 0.00])

Forces in eV/Ang:
  0 Na    0.00017   -0.00052   -0.00076
  1 Na   -0.00291    0.00229    0.00098
  2 Na    0.00161   -0.00147   -0.00043
  3 Na    0.00026    0.00042   -0.00014
  4 Na    0.00126   -0.00061    0.00080
  5 Na    0.00034   -0.00001   -0.00067

System changes: positions 

Initializing position-dependent things.

Density initialized from wave functions
           .--------------------------------------.  
          /|                                      |  
         / |                                      |  
        /  |                                      |  
       /   |                                      |  
      /    |                                      |  
     /     |                                      |  
    /      |                                      |  
   /       |                                      |  
  /        |                                      |  
 *         |           Na                         |  
 |         |                                      |  
 |         |                Na                    |  
 |         |                                      |  
 |         |            Na                        |  
 |         |                    Na                |  
 |         |                                      |  
 |         |                 Na                   |  
 |         |                                      |  
 |         |             Na                       |  
 |         .--------------------------------------.  
 |        /                                      /   
 |       /                                      /    
 |      /                                      /     
 |     /                                      /      
 |    /                                      /       
 |   /                                      /        
 |  /                                      /         
 | /                                      /          
 |/                                      /           
 *--------------------------------------*            

Positions:
   0 Na    11.426881    5.048061    9.672101    ( 0.0000,  0.0000,  0.0000)
   1 Na     9.083874    7.129028   10.718635    ( 0.0000,  0.0000,  0.0000)
   2 Na     6.689725    9.246481   11.514470    ( 0.0000,  0.0000,  0.0000)
   3 Na     7.684500    8.005434    5.116083    ( 0.0000,  0.0000,  0.0000)
   4 Na     9.626077    6.461453    7.291062    ( 0.0000,  0.0000,  0.0000)
   5 Na     7.088906    8.725880    8.277704    ( 0.0000,  0.0000,  0.0000)

Unit cell:
           periodic     x           y           z      points  spacing
  1. axis:    no    16.000000    0.000000    0.000000    64     0.2500
  2. axis:    no     0.000000   16.000000    0.000000    64     0.2500
  3. axis:    no     0.000000    0.000000   16.000000    64     0.2500

  Lengths:  16.000000  16.000000  16.000000
  Angles:   90.000000  90.000000  90.000000

Effective grid spacing dv^(1/3) = 0.2500

     iter     time        total  log10-change:
                         energy  eigst   dens
iter:   1 13:25:48    -4.933922       c
iter:   2 13:25:49    -4.933915       c -2.95
iter:   3 13:25:49    -4.933914c      c -3.28
iter:   4 13:25:50    -4.933914c      c -3.52
iter:   5 13:25:51    -4.933914c      c -4.18c

Converged after 5 iterations.

Dipole moment: (0.000760, -0.000005, 0.001487) |e|*Ang

Energy contributions relative to reference atoms: (reference = -26392.251304)

Kinetic:        +19.127524
Potential:      -17.061027
External:        +0.000000
XC:              -7.021468
Entropy (-ST):   -0.000002
Local:           +0.021059
--------------------------
Free energy:     -4.933914
Extrapolated:    -4.933914

 Band  Eigenvalues  Occupancy
    0     -4.20243    2.00000
    1     -3.13298    2.00000
    2     -3.13217    2.00000
    3     -1.63296    0.00000
    4     -1.55398    0.00000
    5     -1.54927    0.00000
    6      2.06848    0.00000
    7      2.07179    0.00000
    8      2.45498    0.00000
    9      3.37621    0.00000

Fermi level: -2.37373

Gap: 1.499 eV
Transition (v -> c):
  (s=0, k=0, n=2, [0.00, 0.00, 0.00]) -> (s=0, k=0, n=3, [0.00, 0.00, 0.00])

Forces in eV/Ang:
  0 Na   -0.00461    0.00344   -0.00127
  1 Na    0.00339   -0.00318   -0.00018
  2 Na   -0.00017    0.00069   -0.00282
  3 Na    0.00164   -0.00006    0.00060
  4 Na    0.00001    0.00084    0.00194
  5 Na    0.00017   -0.00136    0.00163

System changes: positions 

Initializing position-dependent things.

Density initialized from wave functions
           .--------------------------------------.  
          /|                                      |  
         / |                                      |  
        /  |                                      |  
       /   |                                      |  
      /    |                                      |  
     /     |                                      |  
    /      |                                      |  
   /       |                                      |  
  /        |                                      |  
 *         |           Na                         |  
 |         |                                      |  
 |         |                Na                    |  
 |         |                                      |  
 |         |            Na                        |  
 |         |                    Na                |  
 |         |                                      |  
 |         |                 Na                   |  
 |         |                                      |  
 |         |             Na                       |  
 |         .--------------------------------------.  
 |        /                                      /   
 |       /                                      /    
 |      /                                      /     
 |     /                                      /      
 |    /                                      /       
 |   /                                      /        
 |  /                                      /         
 | /                                      /          
 |/                                      /           
 *--------------------------------------*            

Positions:
   0 Na    11.422282    5.050815    9.669134    ( 0.0000,  0.0000,  0.0000)
   1 Na     9.087407    7.127876   10.719805    ( 0.0000,  0.0000,  0.0000)
   2 Na     6.693834    9.249343   11.511555    ( 0.0000,  0.0000,  0.0000)
   3 Na     7.685759    8.005897    5.116205    ( 0.0000,  0.0000,  0.0000)
   4 Na     9.625058    6.463424    7.292723    ( 0.0000,  0.0000,  0.0000)
   5 Na     7.084007    8.718446    8.281902    ( 0.0000,  0.0000,  0.0000)

Unit cell:
           periodic     x           y           z      points  spacing
  1. axis:    no    16.000000    0.000000    0.000000    64     0.2500
  2. axis:    no     0.000000   16.000000    0.000000    64     0.2500
  3. axis:    no     0.000000    0.000000   16.000000    64     0.2500

  Lengths:  16.000000  16.000000  16.000000
  Angles:   90.000000  90.000000  90.000000

Effective grid spacing dv^(1/3) = 0.2500

     iter     time        total  log10-change:
                         energy  eigst   dens
iter:   1 13:25:52    -4.933957       c
iter:   2 13:25:52    -4.933952       c -2.98
iter:   3 13:25:53    -4.933951c      c -3.37
iter:   4 13:25:53    -4.933951c      c -3.57
iter:   5 13:25:54    -4.933951c      c -4.24c

Converged after 5 iterations.

Dipole moment: (0.000971, -0.000426, 0.002037) |e|*Ang

Energy contributions relative to reference atoms: (reference = -26392.251304)

Kinetic:        +19.199578
Potential:      -17.117421
External:        +0.000000
XC:              -7.036805
Entropy (-ST):   -0.000002
Local:           +0.020698
--------------------------
Free energy:     -4.933951
Extrapolated:    -4.933951

 Band  Eigenvalues  Occupancy
    0     -4.20366    2.00000
    1     -3.13353    2.00000
    2     -3.13208    2.00000
    3     -1.63151    0.00000
    4     -1.55157    0.00000
    5     -1.55023    0.00000
    6      2.06419    0.00000
    7      2.06887    0.00000
    8      2.45366    0.00000
    9      3.37460    0.00000

Fermi level: -2.37322

Gap: 1.501 eV
Transition (v -> c):
  (s=0, k=0, n=2, [0.00, 0.00, 0.00]) -> (s=0, k=0, n=3, [0.00, 0.00, 0.00])

Forces in eV/Ang:
  0 Na    0.00051   -0.00077    0.00053
  1 Na    0.00032   -0.00045    0.00146
  2 Na   -0.00063    0.00073    0.00070
  3 Na    0.00106    0.00008    0.00214
  4 Na   -0.00142    0.00160   -0.00146
  5 Na    0.00073   -0.00101   -0.00340

System changes: positions 

Initializing position-dependent things.

Density initialized from wave functions
           .--------------------------------------.  
          /|                                      |  
         / |                                      |  
        /  |                                      |  
       /   |                                      |  
      /    |                                      |  
     /     |                                      |  
    /      |                                      |  
   /       |                                      |  
  /        |                                      |  
 *         |           Na                         |  
 |         |                                      |  
 |         |               Na                     |  
 |         |                                      |  
 |         |            Na                        |  
 |         |                    Na                |  
 |         |                                      |  
 |         |                 Na                   |  
 |         |                                      |  
 |         |             Na                       |  
 |         .--------------------------------------.  
 |        /                                      /   
 |       /                                      /    
 |      /                                      /     
 |     /                                      /      
 |    /                                      /       
 |   /                                      /        
 |  /                                      /         
 | /                                      /          
 |/                                      /           
 *--------------------------------------*            

Positions:
   0 Na    11.325141    5.039409    9.721656    ( 0.0000,  0.0000,  0.0000)
   1 Na     9.037684    7.091258   10.754836    ( 0.0000,  0.0000,  0.0000)
   2 Na     6.691518    9.270737   11.490921    ( 0.0000,  0.0000,  0.0000)
   3 Na     7.906307    8.054106    5.104013    ( 0.0000,  0.0000,  0.0000)
   4 Na     9.681955    6.557694    7.295764    ( 0.0000,  0.0000,  0.0000)
   5 Na     7.132304    8.660699    8.173259    ( 0.0000,  0.0000,  0.0000)

Unit cell:
           periodic     x           y           z      points  spacing
  1. axis:    no    16.000000    0.000000    0.000000    64     0.2500
  2. axis:    no     0.000000   16.000000    0.000000    64     0.2500
  3. axis:    no     0.000000    0.000000   16.000000    64     0.2500

  Lengths:  16.000000  16.000000  16.000000
  Angles:   90.000000  90.000000  90.000000

Effective grid spacing dv^(1/3) = 0.2500

     iter     time        total  log10-change:
                         energy  eigst   dens
iter:   1 13:25:55    -4.925774       c
iter:   2 13:25:55    -4.921193       c -1.57
iter:   3 13:25:56    -4.920677       c -2.01
iter:   4 13:25:57    -4.920571c      c -2.25
iter:   5 13:25:57    -4.920569c      c -2.77
iter:   6 13:25:58    -4.920568c      c -2.96
iter:   7 13:25:58    -4.920568c      c -3.58
iter:   8 13:25:59    -4.920567c      c -3.80
iter:   9 13:25:59    -4.920567c      c -4.15c

Converged after 9 iterations.

Dipole moment: (-0.016711, 0.012117, -0.056023) |e|*Ang

Energy contributions relative to reference atoms: (reference = -26392.251304)

Kinetic:        +20.049677
Potential:      -17.788095
External:        +0.000000
XC:              -7.203504
Entropy (-ST):   -0.000002
Local:           +0.021355
--------------------------
Free energy:     -4.920568
Extrapolated:    -4.920567

 Band  Eigenvalues  Occupancy
    0     -4.22071    2.00000
    1     -3.17338    2.00000
    2     -3.09800    2.00000
    3     -1.63430    0.00000
    4     -1.55520    0.00000
    5     -1.52383    0.00000
    6      1.94791    0.00000
    7      2.10705    0.00000
    8      2.45447    0.00000
    9      3.33881    0.00000

Fermi level: -2.36800

Gap: 1.464 eV
Transition (v -> c):
  (s=0, k=0, n=2, [0.00, 0.00, 0.00]) -> (s=0, k=0, n=3, [0.00, 0.00, 0.00])

Forces in eV/Ang:
  0 Na    0.03023   -0.02516   -0.01260
  1 Na   -0.02476    0.02304   -0.00776
  2 Na   -0.00320   -0.00798   -0.05632
  3 Na   -0.03083    0.02420   -0.09340
  4 Na    0.07003   -0.06657    0.04868
  5 Na   -0.04088    0.05036    0.12241

System changes: positions 

Initializing position-dependent things.

Density initialized from wave functions
           .--------------------------------------.  
          /|                                      |  
         / |                                      |  
        /  |                                      |  
       /   |                                      |  
      /    |                                      |  
     /     |                                      |  
    /      |                                      |  
   /       |                                      |  
  /        |                                      |  
 *         |           Na                         |  
 |         |                                      |  
 |         |               Na                     |  
 |         |                                      |  
 |         |            Na                        |  
 |         |                    Na                |  
 |         |                                      |  
 |         |                 Na                   |  
 |         |                                      |  
 |         |             Na                       |  
 |         .--------------------------------------.  
 |        /                                      /   
 |       /                                      /    
 |      /                                      /     
 |     /                                      /      
 |    /                                      /       
 |   /                                      /        
 |  /                                      /         
 | /                                      /          
 |/                                      /           
 *--------------------------------------*            

Positions:
   0 Na    11.350391    4.982423    9.756990    ( 0.0000,  0.0000,  0.0000)
   1 Na     8.996980    7.089673   10.760617    ( 0.0000,  0.0000,  0.0000)
   2 Na     6.655303    9.276934   11.427651    ( 0.0000,  0.0000,  0.0000)
   3 Na     7.961189    8.107692    5.032658    ( 0.0000,  0.0000,  0.0000)
   4 Na     9.776138    6.522690    7.323308    ( 0.0000,  0.0000,  0.0000)
   5 Na     7.115265    8.718165    8.216421    ( 0.0000,  0.0000,  0.0000)

Unit cell:
           periodic     x           y           z      points  spacing
  1. axis:    no    16.000000    0.000000    0.000000    64     0.2500
  2. axis:    no     0.000000   16.000000    0.000000    64     0.2500
  3. axis:    no     0.000000    0.000000   16.000000    64     0.2500

  Lengths:  16.000000  16.000000  16.000000
  Angles:   90.000000  90.000000  90.000000

Effective grid spacing dv^(1/3) = 0.2500

     iter     time        total  log10-change:
                         energy  eigst   dens
iter:   1 13:26:00    -4.939244       c
iter:   2 13:26:01    -4.932331       c -1.49
iter:   3 13:26:02    -4.931568       c -1.94
iter:   4 13:26:02    -4.931405c      c -2.17
iter:   5 13:26:03    -4.931400c      c -2.67
iter:   6 13:26:03    -4.931398c      c -2.88
iter:   7 13:26:04    -4.931398c      c -3.44
iter:   8 13:26:04    -4.931398c      c -3.66
iter:   9 13:26:05    -4.931398c      c -4.26c

Converged after 9 iterations.

Dipole moment: (-0.008148, 0.005433, 0.005199) |e|*Ang

Energy contributions relative to reference atoms: (reference = -26392.251304)

Kinetic:        +18.774379
Potential:      -16.782200
External:        +0.000000
XC:              -6.944175
Entropy (-ST):   -0.000002
Local:           +0.020598
--------------------------
Free energy:     -4.931399
Extrapolated:    -4.931398

 Band  Eigenvalues  Occupancy
    0     -4.19312    2.00000
    1     -3.14113    2.00000
    2     -3.12568    2.00000
    3     -1.62875    0.00000
    4     -1.57163    0.00000
    5     -1.55038    0.00000
    6      2.07014    0.00000
    7      2.10833    0.00000
    8      2.46761    0.00000
    9      3.42474    0.00000

Fermi level: -2.37405

Gap: 1.497 eV
Transition (v -> c):
  (s=0, k=0, n=2, [0.00, 0.00, 0.00]) -> (s=0, k=0, n=3, [0.00, 0.00, 0.00])

Forces in eV/Ang:
  0 Na   -0.00057    0.00427    0.00978
  1 Na    0.01724   -0.01306   -0.02431
  2 Na   -0.01489    0.00579    0.00667
  3 Na   -0.00007   -0.00238    0.04291
  4 Na   -0.02565    0.01255   -0.00541
  5 Na    0.02485   -0.00808   -0.02990

System changes: positions 

Initializing position-dependent things.

Density initialized from wave functions
           .--------------------------------------.  
          /|                                      |  
         / |                                      |  
        /  |                                      |  
       /   |                                      |  
      /    |                                      |  
     /     |                                      |  
    /      |                                      |  
   /       |                                      |  
  /        |                                      |  
 *         |           Na                         |  
 |         |                                      |  
 |         |               Na                     |  
 |         |                                      |  
 |         |            Na                        |  
 |         |                    Na                |  
 |         |                                      |  
 |         |                 Na                   |  
 |         |                                      |  
 |         |             Na                       |  
 |         .--------------------------------------.  
 |        /                                      /   
 |       /                                      /    
 |      /                                      /     
 |     /                                      /      
 |    /                                      /       
 |   /                                      /        
 |  /                                      /         
 | /                                      /          
 |/                                      /           
 *--------------------------------------*            

Positions:
   0 Na    11.389934    5.022933    9.721915    ( 0.0000,  0.0000,  0.0000)
   1 Na     9.041947    7.106012   10.714613    ( 0.0000,  0.0000,  0.0000)
   2 Na     6.662097    9.249865   11.474719    ( 0.0000,  0.0000,  0.0000)
   3 Na     7.814173    8.048744    5.093270    ( 0.0000,  0.0000,  0.0000)
   4 Na     9.692792    6.487925    7.305186    ( 0.0000,  0.0000,  0.0000)
   5 Na     7.123668    8.740756    8.241445    ( 0.0000,  0.0000,  0.0000)

Unit cell:
           periodic     x           y           z      points  spacing
  1. axis:    no    16.000000    0.000000    0.000000    64     0.2500
  2. axis:    no     0.000000   16.000000    0.000000    64     0.2500
  3. axis:    no     0.000000    0.000000   16.000000    64     0.2500

  Lengths:  16.000000  16.000000  16.000000
  Angles:   90.000000  90.000000  90.000000

Effective grid spacing dv^(1/3) = 0.2500

     iter     time        total  log10-change:
                         energy  eigst   dens
iter:   1 13:26:06    -4.934319       c
iter:   2 13:26:07    -4.933992       c -2.11
iter:   3 13:26:07    -4.933945c      c -2.50
iter:   4 13:26:08    -4.933932c      c -2.71
iter:   5 13:26:08    -4.933931c      c -3.32
iter:   6 13:26:09    -4.933931c      c -3.55
iter:   7 13:26:09    -4.933931c      c -4.08c

Converged after 7 iterations.

Dipole moment: (0.001071, -0.000562, 0.001098) |e|*Ang

Energy contributions relative to reference atoms: (reference = -26392.251304)

Kinetic:        +19.237900
Potential:      -17.147959
External:        +0.000000
XC:              -7.044732
Entropy (-ST):   -0.000002
Local:           +0.020861
--------------------------
Free energy:     -4.933932
Extrapolated:    -4.933931

 Band  Eigenvalues  Occupancy
    0     -4.20467    2.00000
    1     -3.13340    2.00000
    2     -3.13267    2.00000
    3     -1.63156    0.00000
    4     -1.55461    0.00000
    5     -1.54649    0.00000
    6      2.06038    0.00000
    7      2.06846    0.00000
    8      2.45265    0.00000
    9      3.37180    0.00000

Fermi level: -2.37333

Gap: 1.501 eV
Transition (v -> c):
  (s=0, k=0, n=2, [0.00, 0.00, 0.00]) -> (s=0, k=0, n=3, [0.00, 0.00, 0.00])

Forces in eV/Ang:
  0 Na    0.00293   -0.00216   -0.00065
  1 Na    0.00019    0.00094    0.00500
  2 Na   -0.00165    0.00029   -0.00443
  3 Na   -0.00129    0.00050   -0.00173
  4 Na   -0.00150   -0.00098   -0.00173
  5 Na    0.00146    0.00040    0.00425

System changes: positions 

Initializing position-dependent things.

Density initialized from wave functions
           .--------------------------------------.  
          /|                                      |  
         / |                                      |  
        /  |                                      |  
       /   |                                      |  
      /    |                                      |  
     /     |                                      |  
    /      |                                      |  
   /       |                                      |  
  /        |                                      |  
 *         |           Na                         |  
 |         |                                      |  
 |         |                Na                    |  
 |         |                                      |  
 |         |            Na                        |  
 |         |                    Na                |  
 |         |                                      |  
 |         |                 Na                   |  
 |         |                                      |  
 |         |             Na                       |  
 |         .--------------------------------------.  
 |        /                                      /   
 |       /                                      /    
 |      /                                      /     
 |     /                                      /      
 |    /                                      /       
 |   /                                      /        
 |  /                                      /         
 | /                                      /          
 |/                                      /           
 *--------------------------------------*            

Positions:
   0 Na    11.400474    5.028637    9.709080    ( 0.0000,  0.0000,  0.0000)
   1 Na     9.053699    7.109532   10.722804    ( 0.0000,  0.0000,  0.0000)
   2 Na     6.661543    9.247516   11.478021    ( 0.0000,  0.0000,  0.0000)
   3 Na     7.781975    8.038173    5.097254    ( 0.0000,  0.0000,  0.0000)
   4 Na     9.674554    6.479925    7.300949    ( 0.0000,  0.0000,  0.0000)
   5 Na     7.124964    8.742303    8.252093    ( 0.0000,  0.0000,  0.0000)

Unit cell:
           periodic     x           y           z      points  spacing
  1. axis:    no    16.000000    0.000000    0.000000    64     0.2500
  2. axis:    no     0.000000   16.000000    0.000000    64     0.2500
  3. axis:    no     0.000000    0.000000   16.000000    64     0.2500

  Lengths:  16.000000  16.000000  16.000000
  Angles:   90.000000  90.000000  90.000000

Effective grid spacing dv^(1/3) = 0.2500

     iter     time        total  log10-change:
                         energy  eigst   dens
iter:   1 13:26:10    -4.934041       c
iter:   2 13:26:11    -4.934033       c -2.91
iter:   3 13:26:11    -4.934032c      c -3.31
iter:   4 13:26:12    -4.934031c      c -3.53
iter:   5 13:26:13    -4.934031c      c -4.28c

Converged after 5 iterations.

Dipole moment: (0.000942, -0.000123, 0.000910) |e|*Ang

Energy contributions relative to reference atoms: (reference = -26392.251304)

Kinetic:        +19.194830
Potential:      -17.114656
External:        +0.000000
XC:              -7.035225
Entropy (-ST):   -0.000002
Local:           +0.021020
--------------------------
Free energy:     -4.934032
Extrapolated:    -4.934031

 Band  Eigenvalues  Occupancy
    0     -4.20352    2.00000
    1     -3.13326    2.00000
    2     -3.13279    2.00000
    3     -1.63137    0.00000
    4     -1.55240    0.00000
    5     -1.55042    0.00000
    6      2.06575    0.00000
    7      2.06802    0.00000
    8      2.45380    0.00000
    9      3.37644    0.00000

Fermi level: -2.37335

Gap: 1.501 eV
Transition (v -> c):
  (s=0, k=0, n=2, [0.00, 0.00, 0.00]) -> (s=0, k=0, n=3, [0.00, 0.00, 0.00])

Forces in eV/Ang:
  0 Na    0.00005   -0.00001   -0.00053
  1 Na    0.00039    0.00047    0.00084
  2 Na   -0.00003    0.00020   -0.00026
  3 Na   -0.00015    0.00059    0.00027
  4 Na   -0.00067   -0.00048    0.00064
  5 Na    0.00067   -0.00112   -0.00076

System changes: positions 

Initializing position-dependent things.

Density initialized from wave functions
           .--------------------------------------.  
          /|                                      |  
         / |                                      |  
        /  |                                      |  
       /   |                                      |  
      /    |                                      |  
     /     |                                      |  
    /      |                                      |  
   /       |                                      |  
  /        |                                      |  
 *         |           Na                         |  
 |         |                                      |  
 |         |                Na                    |  
 |         |                                      |  
 |         |            Na                        |  
 |         |                    Na                |  
 |         |                                      |  
 |         |                 Na                   |  
 |         |                                      |  
 |         |             Na                       |  
 |         .--------------------------------------.  
 |        /                                      /   
 |       /                                      /    
 |      /                                      /     
 |     /                                      /      
 |    /                                      /       
 |   /                                      /        
 |  /                                      /         
 | /                                      /          
 |/                                      /           
 *--------------------------------------*            

Positions:
   0 Na    11.403257    5.032298    9.700113    ( 0.0000,  0.0000,  0.0000)
   1 Na     9.061407    7.113619   10.726759    ( 0.0000,  0.0000,  0.0000)
   2 Na     6.668387    9.250320   11.482755    ( 0.0000,  0.0000,  0.0000)
   3 Na     7.766484    8.034597    5.099677    ( 0.0000,  0.0000,  0.0000)
   4 Na     9.664053    6.477299    7.300672    ( 0.0000,  0.0000,  0.0000)
   5 Na     7.117485    8.731728    8.256571    ( 0.0000,  0.0000,  0.0000)

Unit cell:
           periodic     x           y           z      points  spacing
  1. axis:    no    16.000000    0.000000    0.000000    64     0.2500
  2. axis:    no     0.000000   16.000000    0.000000    64     0.2500
  3. axis:    no     0.000000    0.000000   16.000000    64     0.2500

  Lengths:  16.000000  16.000000  16.000000
  Angles:   90.000000  90.000000  90.000000

Effective grid spacing dv^(1/3) = 0.2500

     iter     time        total  log10-change:
                         energy  eigst   dens
iter:   1 13:26:14    -4.934036       c
iter:   2 13:26:14    -4.934035       c -3.26
iter:   3 13:26:15    -4.934035c      c -3.62
iter:   4 13:26:15    -4.934035c      c -3.85
iter:   5 13:26:16    -4.934035c      c -4.57c

Converged after 5 iterations.

Dipole moment: (0.000316, 0.000131, -0.000288) |e|*Ang

Energy contributions relative to reference atoms: (reference = -26392.251304)

Kinetic:        +19.205517
Potential:      -17.122768
External:        +0.000000
XC:              -7.037740
Entropy (-ST):   -0.000002
Local:           +0.020957
--------------------------
Free energy:     -4.934036
Extrapolated:    -4.934035

 Band  Eigenvalues  Occupancy
    0     -4.20384    2.00000
    1     -3.13355    2.00000
    2     -3.13246    2.00000
    3     -1.63152    0.00000
    4     -1.55158    0.00000
    5     -1.55061    0.00000
    6      2.06545    0.00000
    7      2.06698    0.00000
    8      2.45344    0.00000
    9      3.37483    0.00000

Fermi level: -2.37335

Gap: 1.501 eV
Transition (v -> c):
  (s=0, k=0, n=2, [0.00, 0.00, 0.00]) -> (s=0, k=0, n=3, [0.00, 0.00, 0.00])

Forces in eV/Ang:
  0 Na    0.00056   -0.00060    0.00056
  1 Na   -0.00006    0.00031   -0.00050
  2 Na    0.00020   -0.00014   -0.00037
  3 Na    0.00003   -0.00001    0.00018
  4 Na    0.00003   -0.00069   -0.00017
  5 Na   -0.00021    0.00105    0.00039

System changes: positions 

Initializing position-dependent things.

Density initialized from wave functions
           .--------------------------------------.  
          /|                                      |  
         / |                                      |  
        /  |                                      |  
       /   |                                      |  
      /    |                                      |  
     /     |                                      |  
    /      |                                      |  
   /       |                                      |  
  /        |                                      |  
 *         |           Na                         |  
 |         |                                      |  
 |         |                Na                    |  
 |         |                                      |  
 |         |            Na                        |  
 |         |                    Na                |  
 |         |                                      |  
 |         |                 Na                   |  
 |         |                                      |  
 |         |             Na                       |  
 |         .--------------------------------------.  
 |        /                                      /   
 |       /                                      /    
 |      /                                      /     
 |     /                                      /      
 |    /                                      /       
 |   /                                      /        
 |  /                                      /         
 | /                                      /          
 |/                                      /           
 *--------------------------------------*            

Positions:
   0 Na    11.403524    5.030637    9.703111    ( 0.0000,  0.0000,  0.0000)
   1 Na     9.059851    7.113026   10.725107    ( 0.0000,  0.0000,  0.0000)
   2 Na     6.666084    9.249264   11.480758    ( 0.0000,  0.0000,  0.0000)
   3 Na     7.770183    8.035900    5.099669    ( 0.0000,  0.0000,  0.0000)
   4 Na     9.666277    6.476287    7.301130    ( 0.0000,  0.0000,  0.0000)
   5 Na     7.120411    8.736041    8.255271    ( 0.0000,  0.0000,  0.0000)

Unit cell:
           periodic     x           y           z      points  spacing
  1. axis:    no    16.000000    0.000000    0.000000    64     0.2500
  2. axis:    no     0.000000   16.000000    0.000000    64     0.2500
  3. axis:    no     0.000000    0.000000   16.000000    64     0.2500

  Lengths:  16.000000  16.000000  16.000000
  Angles:   90.000000  90.000000  90.000000

Effective grid spacing dv^(1/3) = 0.2500

     iter     time        total  log10-change:
                         energy  eigst   dens
iter:   1 13:26:17    -4.934040       c
iter:   2 13:26:18    -4.934040       c -3.61
iter:   3 13:26:18    -4.934040c      c -3.99
iter:   4 13:26:19    -4.934040c      c -4.24c

Converged after 4 iterations.

Dipole moment: (0.000889, -0.000254, 0.000280) |e|*Ang

Energy contributions relative to reference atoms: (reference = -26392.251304)

Kinetic:        +19.200127
Potential:      -17.118622
External:        +0.000000
XC:              -7.036534
Entropy (-ST):   -0.000002
Local:           +0.020990
--------------------------
Free energy:     -4.934040
Extrapolated:    -4.934040

 Band  Eigenvalues  Occupancy
    0     -4.20372    2.00000
    1     -3.13309    2.00000
    2     -3.13288    2.00000
    3     -1.63156    0.00000
    4     -1.55128    0.00000
    5     -1.55108    0.00000
    6      2.06632    0.00000
    7      2.06672    0.00000
    8      2.45357    0.00000
    9      3.37519    0.00000

Fermi level: -2.37337

Gap: 1.501 eV
Transition (v -> c):
  (s=0, k=0, n=2, [0.00, 0.00, 0.00]) -> (s=0, k=0, n=3, [0.00, 0.00, 0.00])

Forces in eV/Ang:
  0 Na   -0.00015    0.00001    0.00019
  1 Na    0.00013    0.00017    0.00012
  2 Na    0.00027   -0.00001    0.00022
  3 Na    0.00039   -0.00021    0.00003
  4 Na   -0.00027   -0.00026   -0.00020
  5 Na    0.00017    0.00024   -0.00013

Writing to Assignment 2/problem_8/result/LCAO/groundstate/calc_state.gpw (mode='')

Timing:                                       incl.     excl.
--------------------------------------------------------------------
Basic WFS set positions:                      0.007     0.004   0.0% |
 Redistribute:                                0.003     0.003   0.0% |
Basis functions set positions:                0.433     0.433   0.7% |
Forces:                                       5.314     1.105   1.7% ||
 LCAO forces:                                 4.209     0.004   0.0% |
  Atomic Hamiltonian force:                   0.013     0.013   0.0% |
  Initial:                                    0.001     0.000   0.0% |
   Get density matrix:                        0.001     0.001   0.0% |
  Paw correction:                             0.010     0.010   0.0% |
  Potential:                                  3.980     3.980   6.1% |-|
  TCI derivative:                             0.201     0.201   0.3% |
  Wait for sum:                               0.000     0.000   0.0% |
LCAO WFS Initialize:                          7.090     0.046   0.1% |
 Density initialized from wave functions:     0.939     0.462   0.7% |
  Calculate density matrix:                   0.001     0.001   0.0% |
  Construct density:                          0.476     0.476   0.7% |
  Symmetrize density:                         0.000     0.000   0.0% |
 Hamiltonian:                                 6.105     0.001   0.0% |
  Atomic:                                     0.968     0.010   0.0% |
   XC Correction:                             0.958     0.958   1.5% ||
  Calculate atomic Hamiltonians:              0.055     0.055   0.1% |
  Communicate:                                0.000     0.000   0.0% |
  Hartree integrate/restrict:                 0.364     0.364   0.6% |
  Initialize Hamiltonian:                     0.000     0.000   0.0% |
  Poisson:                                    2.551     0.156   0.2% |
   Communicate from 1D:                       0.257     0.257   0.4% |
   Communicate from 2D:                       0.234     0.234   0.4% |
   Communicate to 1D:                         0.355     0.355   0.5% |
   Communicate to 2D:                         0.261     0.261   0.4% |
   FFT 1D:                                    0.387     0.387   0.6% |
   FFT 2D:                                    0.901     0.901   1.4% ||
  XC 3D grid:                                 2.037     2.037   3.1% ||
  vbar:                                       0.127     0.127   0.2% |
P tci:                                        0.088     0.088   0.1% |
Redistribute:                                 0.002     0.002   0.0% |
SCF-cycle:                                   48.374     0.054   0.1% |
 Density:                                     6.153     0.002   0.0% |
  Atomic density matrices:                    0.061     0.061   0.1% |
  Mix:                                        2.834     2.834   4.4% |-|
  Multipole moments:                          0.013     0.013   0.0% |
  Normalize:                                  0.028     0.028   0.0% |
  Pseudo density:                             3.215     0.109   0.2% |
   Calculate density matrix:                  0.006     0.006   0.0% |
   Construct density:                         3.099     3.099   4.8% |-|
   Symmetrize density:                        0.002     0.002   0.0% |
 Hamiltonian:                                37.585     0.007   0.0% |
  Atomic:                                     6.050     0.066   0.1% |
   XC Correction:                             5.983     5.983   9.2% |---|
  Calculate atomic Hamiltonians:              0.347     0.347   0.5% |
  Communicate:                                0.001     0.001   0.0% |
  Hartree integrate/restrict:                 2.234     2.234   3.4% ||
  Poisson:                                   15.433     0.935   1.4% ||
   Communicate from 1D:                       1.588     1.588   2.4% ||
   Communicate from 2D:                       1.433     1.433   2.2% ||
   Communicate to 1D:                         1.953     1.953   3.0% ||
   Communicate to 2D:                         1.586     1.586   2.4% ||
   FFT 1D:                                    2.386     2.386   3.7% ||
   FFT 2D:                                    5.552     5.552   8.5% |--|
  XC 3D grid:                                12.761    12.761  19.6% |-------|
  vbar:                                       0.752     0.752   1.2% |
 LCAO eigensolver:                            4.582     0.008   0.0% |
  Calculate projections:                      0.004     0.004   0.0% |
  DenseAtomicCorrection:                      0.019     0.019   0.0% |
  Distribute overlap matrix:                  0.002     0.002   0.0% |
  Orbital Layouts:                            0.050     0.050   0.1% |
  Potential matrix:                           4.500     4.500   6.9% |--|
ST tci:                                       0.027     0.027   0.0% |
Set symmetry:                                 0.001     0.001   0.0% |
TCI: Evaluate splines:                        0.019     0.019   0.0% |
mktci:                                        0.018     0.018   0.0% |
Other:                                        3.777     3.777   5.8% |-|
--------------------------------------------------------------------
Total:                                                 65.149 100.0%

Memory usage: 516.69 MiB
Date: Thu Feb  2 13:26:20 2023
