6
Lattice="16.0 0.0 0.0 0.0 16.0 0.0 0.0 0.0 16.0" Properties=species:S:1:pos:R:3:forces:R:3:magmoms:R:1 energy=-4.934039617209926 dipole="0.0008894106597432494 -0.0002538364734105097 0.0002804660976751199" magmom=0.0 free_energy=-4.93404043715553 pbc="F F F"
Na      11.40352443       5.03063702       9.70311092      -0.00014751       0.00000985       0.00018876       0.00000000
Na       9.05985088       7.11302588      10.72510712       0.00013150       0.00017177       0.00011525       0.00000000
Na       6.66608352       9.24926356      11.48075752       0.00027478      -0.00001216       0.00021755       0.00000000
Na       7.77018343       8.03590016       5.09966926       0.00038809      -0.00020850       0.00002829       0.00000000
Na       9.66627718       6.47628737       7.30112952      -0.00027125      -0.00026097      -0.00020018       0.00000000
Na       7.12041116       8.73604071       8.25527142       0.00017166       0.00023543      -0.00012965       0.00000000
