6
Lattice="16.0 0.0 0.0 0.0 16.0 0.0 0.0 0.0 16.0" Properties=species:S:1:pos:R:3:forces:R:3 energy=-4.933795004589699 dipole="0.0005263152539483239 -0.0011123320100616281 0.002861525679684605" pbc="F F F"
Na      11.42495505       5.04621466       9.66116018      -0.00257477       0.00294981       0.00212447
Na       9.09121387       7.13554153      10.71935737       0.00466146      -0.00475960      -0.00069248
Na       6.71029777       9.26347103      11.51630251      -0.00291108      -0.00025243      -0.00096099
Na       7.68013285       8.01155859       5.12524767       0.00014741      -0.00180652      -0.00391794
Na       9.62425337       6.46354461       7.29219519      -0.00213031       0.00130601      -0.00031069
Na       7.05520456       8.69064603       8.28397929       0.00322214       0.00272103       0.00338605
