6
Lattice="16.0 0.0 0.0 0.0 16.0 0.0 0.0 0.0 16.0" Properties=species:S:1:pos:R:3:forces:R:3 energy=-4.889951317200686 dipole="0.06250727419721805 0.10604034229489484 0.04694069894174757" pbc="F F F"
Na       8.21023087       9.48993272       8.65651572      -0.00086981       0.01582862      -0.00287759
Na       6.41793051       8.10184564      10.96845960      -0.00130164      -0.00823177       0.00471242
Na       5.00986216       9.94727934       8.32139486      -0.00216064       0.00332848      -0.00202912
Na       7.21149232       9.79052510       5.57735592      -0.00197205       0.00222956      -0.00238578
Na       9.99255724       7.84860511       6.50535181       0.00407172      -0.00788137      -0.00317385
Na       9.47726367       6.75405788       9.82253046       0.00490932      -0.00494926       0.00408735
