
  ___ ___ ___ _ _ _  
 |   |   |_  | | | | 
 | | | | | . | | | | 
 |__ |  _|___|_____|  22.8.0
 |___|_|             

User:   gotols@vera1
Date:   Fri Feb 17 14:45:29 2023
Arch:   x86_64
Pid:    721143
CWD:    /cephyr/users/gotols/Vera/TIF320-Computational-materials-and-molecular-physics-Assignments/Assignment 4
Python: 3.10.4
gpaw:   /apps/Arch/software/GPAW/22.8.0-foss-2022a/lib/python3.10/site-packages/gpaw
_gpaw:  /apps/Arch/software/GPAW/22.8.0-foss-2022a/lib/python3.10/site-packages/
        _gpaw.cpython-310-x86_64-linux-gnu.so
ase:    /apps/Arch/software/ASE/3.22.1-foss-2022a/lib/python3.10/site-packages/ase (version 3.22.1)
numpy:  /apps/Arch/software/SciPy-bundle/2022.05-foss-2022a/lib/python3.10/site-packages/numpy (version 1.22.3)
scipy:  /apps/Arch/software/SciPy-bundle/2022.05-foss-2022a/lib/python3.10/site-packages/scipy (version 1.8.1)
libxc:  5.2.3
units:  Angstrom and eV
cores: 1
OpenMP: False
OMP_NUM_THREADS: 1

Input parameters:
  kpts: {gamma: True}
  mode: {ecut: 450.00000000000006,
         name: pw}
  xc: PBE

System changes: positions, numbers, cell, pbc, initial_charges, initial_magmoms 

Initialize ...

species:
  O:
    name: Oxygen
    id: 32ecd46bf208036f09c70b0ec9a88b78
    Z: 8.0
    valence: 6
    core: 2
    charge: 0.0
    file: /apps/Common/software/GPAW-setups/0.9.20000/O.PBE.gz
    compensation charges: {type: gauss,
                           rc: 0.21,
                           lmax: 2}
    cutoffs: {filter: 1.17,
              core: 0.83}
    valence states:
      #              energy  rcut
      - 2s(2.00)   -23.961   0.688
      - 2p(4.00)    -9.029   0.598
      -  s           3.251   0.688
      -  p          18.182   0.598
      -  d           0.000   0.619
  
    # Using partial waves for O as LCAO basis

  C:
    name: Carbon
    id: 4aa54d4b901d75f77cc0ea3eec22967b
    Z: 6.0
    valence: 4
    core: 2
    charge: 0.0
    file: /apps/Common/software/GPAW-setups/0.9.20000/C.PBE.gz
    compensation charges: {type: gauss,
                           rc: 0.20,
                           lmax: 2}
    cutoffs: {filter: 1.14,
              core: 1.14}
    valence states:
      #              energy  rcut
      - 2s(2.00)   -13.751   0.635
      - 2p(2.00)    -5.284   0.635
      -  s          13.461   0.635
      -  p          21.927   0.635
      -  d           0.000   0.635
  
    # Using partial waves for C as LCAO basis

Reference energy: -3068.480417  # eV

Spin-paired calculation

Convergence criteria:
 Maximum [total energy] change in last 3 cyles: 0.0005 eV / electron
 Maximum integral of absolute [dens]ity change: 0.0001 electrons / valence electron
 Maximum integral of absolute [eigenst]ate change: 4e-08 eV^2 / valence electron
 Maximum number of scf [iter]ations: 333
 (Square brackets indicate name in SCF output, whereas a 'c' in
 the SCF output indicates the quantity has converged.)

Symmetries present (total): 8

  ( 1  0  0)  ( 1  0  0)  ( 0  1  0)  ( 0  1  0)  ( 0 -1  0)  ( 0 -1  0)
  ( 0  1  0)  ( 0 -1  0)  ( 1  0  0)  (-1  0  0)  ( 1  0  0)  (-1  0  0)
  ( 0  0  1)  ( 0  0  1)  ( 0  0  1)  ( 0  0  1)  ( 0  0  1)  ( 0  0  1)

  (-1  0  0)  (-1  0  0)
  ( 0  1  0)  ( 0 -1  0)
  ( 0  0  1)  ( 0  0  1)

1 k-point (Gamma)
1 k-point in the irreducible part of the Brillouin zone
       k-points in crystal coordinates                weights
   0:     0.00000000    0.00000000    0.00000000          1/1

Wave functions: Plane wave expansion
  Cutoff energy: 450.000 eV
  Number of coefficients: 37529 (reduced to 18765)
  Pulay-stress correction: 0.000000 eV/Ang^3 (de/decut=0.000000)
  Using FFTW library
  ScaLapack parameters: grid=1x1, blocksize=None
  Wavefunction extrapolation:
    Improved wavefunction reuse through dual PAW basis 

Occupation numbers: # Zero width 

Eigensolver
   Davidson(niter=2) 

Densities:
  Coarse grid: 60*60*60 grid
  Fine grid: 120*120*120 grid
  Total Charge: 0.000000 

Density mixing:
  Method: separate
  Backend: pulay
  Linear mixing parameter: 0.05
  old densities: 5
  Damping of long wavelength oscillations: 50 

Hamiltonian:
  XC and Coulomb potentials evaluated on a 120*120*120 grid
  Using the PBE Exchange-Correlation functional
  External potential:
    NoExternalPotential
 

XC parameters: PBE with 2 nearest neighbor stencil

Memory estimate:
  Process memory now: 478.83 MiB
  Calculator: 151.49 MiB
    Density: 109.04 MiB
      Arrays: 42.85 MiB
      Localized functions: 49.71 MiB
      Mixer: 16.48 MiB
    Hamiltonian: 29.23 MiB
      Arrays: 28.02 MiB
      XC: 0.00 MiB
      Poisson: 0.00 MiB
      vbar: 1.21 MiB
    Wavefunctions: 13.23 MiB
      Arrays psit_nG: 2.29 MiB
      Eigensolver: 3.73 MiB
      Projections: 0.00 MiB
      Projectors: 2.72 MiB
      PW-descriptor: 4.49 MiB

Total number of cores used: 1

Number of atoms: 2
Number of atomic orbitals: 8
Number of bands in calculation: 8
Number of valence electrons: 10
Bands to converge: occupied

... initialized

Initializing position-dependent things.

Density initialized from atomic densities
Creating initial wave functions:
  8 bands from LCAO basis set

        .----------------------------.  
       /|                            |  
      / |                            |  
     /  |                            |  
    /   |                            |  
   /    |                            |  
  /     |                            |  
 *      |                            |  
 |      |                            |  
 |      |                            |  
 |      |          O                 |  
 |      |                            |  
 |      |          C                 |  
 |      |                            |  
 |      |                            |  
 |      .----------------------------.  
 |     /                            /   
 |    /                            /    
 |   /                            /     
 |  /                            /      
 | /                            /       
 |/                            /        
 *----------------------------*         

Positions:
   0 O      6.000000    6.000000    6.575170    ( 0.0000,  0.0000,  0.0000)
   1 C      6.000000    6.000000    5.424830    ( 0.0000,  0.0000,  0.0000)

Unit cell:
           periodic     x           y           z      points  spacing
  1. axis:    no    12.000000    0.000000    0.000000    60     0.2000
  2. axis:    no     0.000000   12.000000    0.000000    60     0.2000
  3. axis:    no     0.000000    0.000000   12.000000    60     0.2000

  Lengths:  12.000000  12.000000  12.000000
  Angles:   90.000000  90.000000  90.000000

Effective grid spacing dv^(1/3) = 0.2000

     iter     time        total  log10-change:
                         energy  eigst   dens
iter:   1 14:45:36   -14.756275
iter:   2 14:45:39   -14.699537  -1.16  -0.92
iter:   3 14:45:43   -14.333504  -1.48  -0.95
iter:   4 14:45:46   -14.268437  -2.08  -1.18
iter:   5 14:45:50   -14.218097  -1.54  -1.32
iter:   6 14:45:54   -14.219117  -2.62  -1.71
iter:   7 14:45:58   -14.195578  -2.44  -1.70
iter:   8 14:46:01   -14.194326  -3.46  -2.34
iter:   9 14:46:05   -14.194292c -4.84  -2.80
iter:  10 14:46:08   -14.194362c -4.50  -2.84
iter:  11 14:46:12   -14.194273c -5.01  -2.92
iter:  12 14:46:16   -14.194270c -5.74  -3.56
iter:  13 14:46:20   -14.194271c -6.54  -3.66
iter:  14 14:46:23   -14.194269c -6.78  -3.70
iter:  15 14:46:27   -14.194269c -7.43c -3.82
iter:  16 14:46:30   -14.194269c -7.06  -3.86
iter:  17 14:46:34   -14.194269c -7.43c -4.27c

Converged after 17 iterations.

Dipole moment: (-0.000000, -0.000000, 0.035490) |e|*Ang

Energy contributions relative to reference atoms: (reference = -3068.480417)

Kinetic:         +9.950350
Potential:      -13.501209
External:        +0.000000
XC:             -10.609378
Entropy (-ST):   +0.000000
Local:           -0.034032
--------------------------
Free energy:    -14.194269
Extrapolated:   -14.194269

 Band  Eigenvalues  Occupancy
    0    -29.03683    2.00000
    1    -14.07523    2.00000
    2    -11.56089    2.00000
    3    -11.56089    2.00000
    4     -8.97087    2.00000
    5     -2.09441    0.00000
    6     -2.09441    0.00000
    7     -0.22806    0.00000

Fermi level: -5.53264

Gap: 6.876 eV
Transition (v -> c):
  (s=0, k=0, n=4, [0.00, 0.00, 0.00]) -> (s=0, k=0, n=5, [0.00, 0.00, 0.00])
Timing:                              incl.     excl.
-----------------------------------------------------------
Hamiltonian:                         0.924     0.006   0.0% |
 Atomic:                             0.085     0.001   0.0% |
  XC Correction:                     0.084     0.084   0.0% |
 Calculate atomic Hamiltonians:      0.047     0.047   0.0% |
 Communicate:                        0.000     0.000   0.0% |
 Initialize Hamiltonian:             0.000     0.000   0.0% |
 Poisson:                            0.011     0.011   0.0% |
 XC 3D grid:                         0.775     0.775   0.4% |
LCAO initialization:                 0.140     0.095   0.0% |
 LCAO eigensolver:                   0.010     0.001   0.0% |
  Calculate projections:             0.000     0.000   0.0% |
  DenseAtomicCorrection:             0.000     0.000   0.0% |
  Distribute overlap matrix:         0.000     0.000   0.0% |
  Orbital Layouts:                   0.001     0.001   0.0% |
  Potential matrix:                  0.008     0.008   0.0% |
 LCAO to grid:                       0.027     0.027   0.0% |
 Set positions (LCAO WFS):           0.008     0.001   0.0% |
  Basic WFS set positions:           0.001     0.001   0.0% |
  Basis functions set positions:     0.000     0.000   0.0% |
  P tci:                             0.002     0.002   0.0% |
  ST tci:                            0.001     0.001   0.0% |
  mktci:                             0.003     0.003   0.0% |
PWDescriptor:                        0.704     0.704   0.3% |
SCF-cycle:                          60.100     0.016   0.0% |
 Davidson:                          32.318    24.470  11.1% |---|
  Apply H:                           1.203     1.185   0.5% |
   HMM T:                            0.018     0.018   0.0% |
  Subspace diag:                     2.725     0.003   0.0% |
   calc_h_matrix:                    0.764     0.024   0.0% |
    Apply H:                         0.740     0.714   0.3% |
     HMM T:                          0.026     0.026   0.0% |
   diagonalize:                      0.011     0.011   0.0% |
   rotate_psi:                       1.947     1.947   0.9% |
  calc. matrices:                    1.164     0.124   0.1% |
   Apply H:                          1.040     1.013   0.5% |
    HMM T:                           0.027     0.027   0.0% |
  diagonalize:                       0.015     0.015   0.0% |
  rotate_psi:                        2.741     2.741   1.2% |
 Density:                           13.736     0.000   0.0% |
  Atomic density matrices:           0.014     0.014   0.0% |
  Mix:                              11.103    11.103   5.0% |-|
  Multipole moments:                 0.003     0.003   0.0% |
  Pseudo density:                    2.617     0.758   0.3% |
   Symmetrize density:               1.859     1.859   0.8% |
 Hamiltonian:                       13.994     0.077   0.0% |
  Atomic:                            1.551     0.013   0.0% |
   XC Correction:                    1.538     1.538   0.7% |
  Calculate atomic Hamiltonians:     0.751     0.751   0.3% |
  Communicate:                       0.000     0.000   0.0% |
  Poisson:                           0.101     0.101   0.0% |
  XC 3D grid:                       11.513    11.513   5.2% |-|
 Orthonormalize:                     0.035     0.000   0.0% |
  calc_s_matrix:                     0.001     0.001   0.0% |
  inverse-cholesky:                  0.000     0.000   0.0% |
  projections:                       0.009     0.009   0.0% |
  rotate_psi_s:                      0.024     0.024   0.0% |
Set symmetry:                        0.003     0.003   0.0% |
Other:                             159.444   159.444  72.0% |----------------------------|
-----------------------------------------------------------
Total:                                       221.316 100.0%

Memory usage: 1.02 GiB
Date: Fri Feb 17 14:49:10 2023
