
  ___ ___ ___ _ _ _  
 |   |   |_  | | | | 
 | | | | | . | | | | 
 |__ |  _|___|_____|  22.8.0
 |___|_|             

User:   gotols@vera1
Date:   Fri Feb 17 11:25:36 2023
Arch:   x86_64
Pid:    175254
CWD:    /cephyr/users/gotols/Vera/TIF320-Computational-materials-and-molecular-physics-Assignments
Python: 3.10.4
gpaw:   /apps/Arch/software/GPAW/22.8.0-foss-2022a/lib/python3.10/site-packages/gpaw
_gpaw:  /apps/Arch/software/GPAW/22.8.0-foss-2022a/lib/python3.10/site-packages/
        _gpaw.cpython-310-x86_64-linux-gnu.so
ase:    /apps/Arch/software/ASE/3.22.1-foss-2022a/lib/python3.10/site-packages/ase (version 3.22.1)
numpy:  /apps/Arch/software/SciPy-bundle/2022.05-foss-2022a/lib/python3.10/site-packages/numpy (version 1.22.3)
scipy:  /apps/Arch/software/SciPy-bundle/2022.05-foss-2022a/lib/python3.10/site-packages/scipy (version 1.8.1)
libxc:  5.2.3
units:  Angstrom and eV
cores: 1
OpenMP: False
OMP_NUM_THREADS: 1

Input parameters:
  mode: {ecut: 150.0,
         name: pw}
  xc: PBE

System changes: positions, numbers, cell, pbc, initial_charges, initial_magmoms 

Initialize ...

species:
  O:
    name: Oxygen
    id: 32ecd46bf208036f09c70b0ec9a88b78
    Z: 8.0
    valence: 6
    core: 2
    charge: 0.0
    file: /apps/Common/software/GPAW-setups/0.9.20000/O.PBE.gz
    compensation charges: {type: gauss,
                           rc: 0.21,
                           lmax: 2}
    cutoffs: {filter: 1.17,
              core: 0.83}
    valence states:
      #              energy  rcut
      - 2s(2.00)   -23.961   0.688
      - 2p(4.00)    -9.029   0.598
      -  s           3.251   0.688
      -  p          18.182   0.598
      -  d           0.000   0.619
  
    # Using partial waves for O as LCAO basis

  C:
    name: Carbon
    id: 4aa54d4b901d75f77cc0ea3eec22967b
    Z: 6.0
    valence: 4
    core: 2
    charge: 0.0
    file: /apps/Common/software/GPAW-setups/0.9.20000/C.PBE.gz
    compensation charges: {type: gauss,
                           rc: 0.20,
                           lmax: 2}
    cutoffs: {filter: 1.14,
              core: 1.14}
    valence states:
      #              energy  rcut
      - 2s(2.00)   -13.751   0.635
      - 2p(2.00)    -5.284   0.635
      -  s          13.461   0.635
      -  p          21.927   0.635
      -  d           0.000   0.635
  
    # Using partial waves for C as LCAO basis

Reference energy: -3068.480417  # eV

Spin-paired calculation

Convergence criteria:
 Maximum [total energy] change in last 3 cyles: 0.0005 eV / electron
 Maximum integral of absolute [dens]ity change: 0.0001 electrons / valence electron
 Maximum integral of absolute [eigenst]ate change: 4e-08 eV^2 / valence electron
 Maximum number of scf [iter]ations: 333
 (Square brackets indicate name in SCF output, whereas a 'c' in
 the SCF output indicates the quantity has converged.)

Symmetries present (total): 2

  ( 1  0  0)  (-1  0  0)
  ( 0  1  0)  ( 0  1  0)
  ( 0  0  1)  ( 0  0  1)

1 k-point (Gamma)
1 k-point in the irreducible part of the Brillouin zone
       k-points in crystal coordinates                weights
   0:     0.00000000    0.00000000    0.00000000          1/1

Wave functions: Plane wave expansion
  Cutoff energy: 150.000 eV
  Number of coefficients: 7123 (reduced to 3562)
  Pulay-stress correction: 0.000000 eV/Ang^3 (de/decut=0.000000)
  Using FFTW library
  ScaLapack parameters: grid=1x1, blocksize=None
  Wavefunction extrapolation:
    Improved wavefunction reuse through dual PAW basis 

Occupation numbers: # Zero width 

Eigensolver
   Davidson(niter=2) 

Densities:
  Coarse grid: 35*35*35 grid
  Fine grid: 70*70*70 grid
  Total Charge: 0.000000 

Density mixing:
  Method: separate
  Backend: pulay
  Linear mixing parameter: 0.05
  old densities: 5
  Damping of long wavelength oscillations: 50 

Hamiltonian:
  XC and Coulomb potentials evaluated on a 70*70*70 grid
  Using the PBE Exchange-Correlation functional
  External potential:
    NoExternalPotential
 

XC parameters: PBE with 2 nearest neighbor stencil

Memory estimate:
  Process memory now: 362.03 MiB
  Calculator: 29.67 MiB
    Density: 21.33 MiB
      Arrays: 8.50 MiB
      Localized functions: 9.55 MiB
      Mixer: 3.27 MiB
    Hamiltonian: 5.79 MiB
      Arrays: 5.56 MiB
      XC: 0.00 MiB
      Poisson: 0.00 MiB
      vbar: 0.23 MiB
    Wavefunctions: 2.55 MiB
      Arrays psit_nG: 0.43 MiB
      Eigensolver: 0.71 MiB
      Projections: 0.00 MiB
      Projectors: 0.52 MiB
      PW-descriptor: 0.89 MiB

Total number of cores used: 1

Number of atoms: 2
Number of atomic orbitals: 8
Number of bands in calculation: 8
Number of valence electrons: 10
Bands to converge: occupied

... initialized

Initializing position-dependent things.

Density initialized from atomic densities
Creating initial wave functions:
  8 bands from LCAO basis set

        .----------------------------.  
       /|                            |  
      / |                            |  
     /  |                            |  
    /   |                            |  
   /    |                            |  
  /     |                            |  
 *      |                            |  
 |      |                            |  
 |      |                            |  
 |      |          O                 |  
 |      |                            |  
 |      |          C                 |  
 |      |                            |  
 |      |                            |  
 |      .----------------------------.  
 |     /                            /   
 |    /                            /    
 |   /                            /     
 |  /                            /      
 | /                            /       
 |/                            /        
 *----------------------------*         

Positions:
   0 O      6.000000    6.000000    6.575170    ( 0.0000,  0.0000,  0.0000)
   1 C      6.000000    6.010000    5.424830    ( 0.0000,  0.0000,  0.0000)

Unit cell:
           periodic     x           y           z      points  spacing
  1. axis:    no    12.000000    0.000000    0.000000    35     0.3429
  2. axis:    no     0.000000   12.000000    0.000000    35     0.3429
  3. axis:    no     0.000000    0.000000   12.000000    35     0.3429

  Lengths:  12.000000  12.000000  12.000000
  Angles:   90.000000  90.000000  90.000000

Effective grid spacing dv^(1/3) = 0.3429

     iter     time        total  log10-change:
                         energy  eigst   dens
iter:   1 11:25:37    19.141138
iter:   2 11:25:38    20.817114  -1.36  -0.63
iter:   3 11:25:40    26.628301  -0.60  -0.67
iter:   4 11:25:41    26.804278  -2.37  -0.81
iter:   5 11:25:43    28.055838  -1.14  -0.87
iter:   6 11:25:44    28.019628  -1.43  -1.32
iter:   7 11:25:46    28.178336  -1.78  -1.23
iter:   8 11:25:47    28.199098  -3.35  -1.81
iter:   9 11:25:49    28.201272  -3.39  -2.19
iter:  10 11:25:50    28.202036c -4.00  -2.14
iter:  11 11:25:52    28.202092c -5.29  -2.88
iter:  12 11:25:54    28.202095c -6.56  -3.02
iter:  13 11:25:56    28.202089c -5.47  -3.03
iter:  14 11:25:58    28.202101c -5.75  -3.35
iter:  15 11:26:00    28.202101c -6.88  -3.77
iter:  16 11:26:01    28.202101c -7.97c -3.94
iter:  17 11:26:03    28.202101c -8.20c -4.07c

Converged after 17 iterations.

Dipole moment: (-0.000000, 0.000412, 0.142932) |e|*Ang

Energy contributions relative to reference atoms: (reference = -3068.480417)

Kinetic:       -105.328385
Potential:     +130.110245
External:        +0.000000
XC:              +2.483010
Entropy (-ST):   +0.000000
Local:           +0.937231
--------------------------
Free energy:    +28.202101
Extrapolated:   +28.202101

 Band  Eigenvalues  Occupancy
    0    -36.31593    2.00000
    1    -16.02438    2.00000
    2    -10.42507    2.00000
    3    -10.42495    2.00000
    4     -8.65183    2.00000
    5     -0.61087    0.00000
    6     -0.61082    0.00000
    7     -0.48187    0.00000

Fermi level: -4.63135

Gap: 8.041 eV
Transition (v -> c):
  (s=0, k=0, n=4, [0.00, 0.00, 0.00]) -> (s=0, k=0, n=5, [0.00, 0.00, 0.00])

Forces in eV/Ang:
  0 O     0.00000   -0.06692    6.85149
  1 C     0.00000    0.11313   -6.49426

System changes: positions 

Initializing position-dependent things.

Density initialized from wave functions
        .----------------------------.  
       /|                            |  
      / |                            |  
     /  |                            |  
    /   |                            |  
   /    |                            |  
  /     |                            |  
 *      |                            |  
 |      |                            |  
 |      |                            |  
 |      |          O                 |  
 |      |                            |  
 |      |          C                 |  
 |      |                            |  
 |      |                            |  
 |      .----------------------------.  
 |     /                            /   
 |    /                            /    
 |   /                            /     
 |  /                            /      
 | /                            /       
 |/                            /        
 *----------------------------*         

Positions:
   0 O      6.000000    6.000000    6.575170    ( 0.0000,  0.0000,  0.0000)
   1 C      6.000000    6.000000    5.414830    ( 0.0000,  0.0000,  0.0000)

Unit cell:
           periodic     x           y           z      points  spacing
  1. axis:    no    12.000000    0.000000    0.000000    35     0.3429
  2. axis:    no     0.000000   12.000000    0.000000    35     0.3429
  3. axis:    no     0.000000    0.000000   12.000000    35     0.3429

  Lengths:  12.000000  12.000000  12.000000
  Angles:   90.000000  90.000000  90.000000

Effective grid spacing dv^(1/3) = 0.3429

     iter     time        total  log10-change:
                         energy  eigst   dens
iter:   1 11:26:04    28.146804  -2.79
iter:   2 11:26:05    28.146848  -4.47  -2.50
iter:   3 11:26:06    28.147294c -4.40  -2.52
iter:   4 11:26:08    28.147306c -5.84  -2.88
iter:   5 11:26:09    28.147346c -5.15  -2.92
iter:   6 11:26:11    28.147344c -5.61  -3.35
iter:   7 11:26:13    28.147348c -6.25  -3.32
iter:   8 11:26:14    28.147351c -6.50  -3.60
iter:   9 11:26:16    28.147351c -7.73c -4.34c

Converged after 9 iterations.

Dipole moment: (-0.000000, 0.000002, 0.136978) |e|*Ang

Energy contributions relative to reference atoms: (reference = -3068.480417)

Kinetic:       -106.817378
Potential:     +131.279800
External:        +0.000000
XC:              +2.775872
Entropy (-ST):   +0.000000
Local:           +0.909057
--------------------------
Free energy:    +28.147351
Extrapolated:   +28.147351

 Band  Eigenvalues  Occupancy
    0    -36.17818    2.00000
    1    -16.03186    2.00000
    2    -10.34455    2.00000
    3    -10.34455    2.00000
    4     -8.64918    2.00000
    5     -0.69557    0.00000
    6     -0.69557    0.00000
    7     -0.48274    0.00000

Fermi level: -4.67237

Gap: 7.954 eV
Transition (v -> c):
  (s=0, k=0, n=4, [0.00, 0.00, 0.00]) -> (s=0, k=0, n=5, [0.00, 0.00, 0.00])

Forces in eV/Ang:
  0 O     0.00000   -0.00047    4.90799
  1 C     0.00000    0.00061   -4.59321

System changes: positions 

Initializing position-dependent things.

Density initialized from wave functions
        .----------------------------.  
       /|                            |  
      / |                            |  
     /  |                            |  
    /   |                            |  
   /    |                            |  
  /     |                            |  
 *      |                            |  
 |      |                            |  
 |      |                            |  
 |      |          O                 |  
 |      |                            |  
 |      |          C                 |  
 |      |                            |  
 |      |                            |  
 |      .----------------------------.  
 |     /                            /   
 |    /                            /    
 |   /                            /     
 |  /                            /      
 | /                            /       
 |/                            /        
 *----------------------------*         

Positions:
   0 O      6.000000    6.000000    6.575170    ( 0.0000,  0.0000,  0.0000)
   1 C      6.000000    6.000000    5.434830    ( 0.0000,  0.0000,  0.0000)

Unit cell:
           periodic     x           y           z      points  spacing
  1. axis:    no    12.000000    0.000000    0.000000    35     0.3429
  2. axis:    no     0.000000   12.000000    0.000000    35     0.3429
  3. axis:    no     0.000000    0.000000   12.000000    35     0.3429

  Lengths:  12.000000  12.000000  12.000000
  Angles:   90.000000  90.000000  90.000000

Effective grid spacing dv^(1/3) = 0.3429

     iter     time        total  log10-change:
                         energy  eigst   dens
iter:   1 11:26:17    28.275689  -2.42
iter:   2 11:26:18    28.275938  -4.11  -2.25
iter:   3 11:26:20    28.277668c -3.91  -2.27
iter:   4 11:26:21    28.277722c -5.29  -2.61
iter:   5 11:26:23    28.277882c -4.66  -2.66
iter:   6 11:26:24    28.277867c -5.16  -3.15
iter:   7 11:26:26    28.277879c -5.81  -3.05
iter:   8 11:26:28    28.277894c -5.86  -3.30
iter:   9 11:26:30    28.277894c -7.38  -4.16c
iter:  10 11:26:32    28.277894c -7.58c -4.07c

Converged after 10 iterations.

Dipole moment: (-0.000000, -0.000000, 0.147922) |e|*Ang

Energy contributions relative to reference atoms: (reference = -3068.480417)

Kinetic:       -103.725750
Potential:     +128.853761
External:        +0.000000
XC:              +2.180473
Entropy (-ST):   +0.000000
Local:           +0.969410
--------------------------
Free energy:    +28.277894
Extrapolated:   +28.277894

 Band  Eigenvalues  Occupancy
    0    -36.45633    2.00000
    1    -16.01421    2.00000
    2    -10.50675    2.00000
    3    -10.50675    2.00000
    4     -8.65272    2.00000
    5     -0.52536    0.00000
    6     -0.52536    0.00000
    7     -0.48071    0.00000

Fermi level: -4.58904

Gap: 8.127 eV
Transition (v -> c):
  (s=0, k=0, n=4, [0.00, 0.00, 0.00]) -> (s=0, k=0, n=5, [0.00, 0.00, 0.00])

Forces in eV/Ang:
  0 O     0.00000    0.00001    8.95364
  1 C     0.00000    0.00001   -8.57407

System changes: positions 

Initializing position-dependent things.

Density initialized from wave functions
        .----------------------------.  
       /|                            |  
      / |                            |  
     /  |                            |  
    /   |                            |  
   /    |                            |  
  /     |                            |  
 *      |                            |  
 |      |                            |  
 |      |                            |  
 |      |          O                 |  
 |      |                            |  
 |      |          C                 |  
 |      |                            |  
 |      |                            |  
 |      .----------------------------.  
 |     /                            /   
 |    /                            /    
 |   /                            /     
 |  /                            /      
 | /                            /       
 |/                            /        
 *----------------------------*         

Positions:
   0 O      6.000000    6.000000    6.575170    ( 0.0000,  0.0000,  0.0000)
   1 C      6.000000    6.000000    5.424830    ( 0.0000,  0.0000,  0.0000)

Unit cell:
           periodic     x           y           z      points  spacing
  1. axis:    no    12.000000    0.000000    0.000000    35     0.3429
  2. axis:    no     0.000000   12.000000    0.000000    35     0.3429
  3. axis:    no     0.000000    0.000000   12.000000    35     0.3429

  Lengths:  12.000000  12.000000  12.000000
  Angles:   90.000000  90.000000  90.000000

Effective grid spacing dv^(1/3) = 0.3429

     iter     time        total  log10-change:
                         energy  eigst   dens
iter:   1 11:26:33    28.202124  -2.99
iter:   2 11:26:34    28.202183  -4.70  -2.54
iter:   3 11:26:35    28.202627c -4.51  -2.55
iter:   4 11:26:36    28.202642c -5.83  -2.91
iter:   5 11:26:38    28.202680c -5.28  -2.97
iter:   6 11:26:40    28.202677c -5.76  -3.45
iter:   7 11:26:41    28.202681c -6.48  -3.36
iter:   8 11:26:43    28.202684c -6.60  -3.65
iter:   9 11:26:45    28.202684c -8.22c -4.48c

Converged after 9 iterations.

Dipole moment: (-0.000000, -0.000000, 0.142717) |e|*Ang

Energy contributions relative to reference atoms: (reference = -3068.480417)

Kinetic:       -105.298420
Potential:     +130.085767
External:        +0.000000
XC:              +2.480678
Entropy (-ST):   +0.000000
Local:           +0.934659
--------------------------
Free energy:    +28.202684
Extrapolated:   +28.202684

 Band  Eigenvalues  Occupancy
    0    -36.31520    2.00000
    1    -16.02360    2.00000
    2    -10.42457    2.00000
    3    -10.42457    2.00000
    4     -8.65165    2.00000
    5     -0.61045    0.00000
    6     -0.61045    0.00000
    7     -0.48184    0.00000

Fermi level: -4.63105

Gap: 8.041 eV
Transition (v -> c):
  (s=0, k=0, n=4, [0.00, 0.00, 0.00]) -> (s=0, k=0, n=5, [0.00, 0.00, 0.00])
Timing:                                      incl.     excl.
-------------------------------------------------------------------
Density initialized from wave functions:     0.070     0.056   0.1% |
 Symmetrize density:                         0.014     0.014   0.0% |
Forces:                                      0.150     0.150   0.2% |
Hamiltonian:                                 1.841     0.004   0.0% |
 Atomic:                                     0.392     0.003   0.0% |
  XC Correction:                             0.389     0.389   0.6% |
 Calculate atomic Hamiltonians:              0.034     0.034   0.0% |
 Communicate:                                0.000     0.000   0.0% |
 Initialize Hamiltonian:                     0.000     0.000   0.0% |
 Poisson:                                    0.006     0.006   0.0% |
 XC 3D grid:                                 1.405     1.405   2.0% ||
LCAO initialization:                         0.080     0.064   0.1% |
 LCAO eigensolver:                           0.003     0.001   0.0% |
  Calculate projections:                     0.000     0.000   0.0% |
  DenseAtomicCorrection:                     0.000     0.000   0.0% |
  Distribute overlap matrix:                 0.000     0.000   0.0% |
  Orbital Layouts:                           0.001     0.001   0.0% |
  Potential matrix:                          0.001     0.001   0.0% |
 LCAO to grid:                               0.007     0.007   0.0% |
 Set positions (LCAO WFS):                   0.007     0.001   0.0% |
  Basic WFS set positions:                   0.000     0.000   0.0% |
  Basis functions set positions:             0.000     0.000   0.0% |
  P tci:                                     0.002     0.002   0.0% |
  ST tci:                                    0.001     0.001   0.0% |
  mktci:                                     0.002     0.002   0.0% |
PWDescriptor:                                0.079     0.079   0.1% |
Redistribute:                                0.001     0.001   0.0% |
SCF-cycle:                                  65.363     0.037   0.1% |
 Davidson:                                  11.160     8.815  12.7% |----|
  Apply H:                                   0.462     0.454   0.7% |
   HMM T:                                    0.008     0.008   0.0% |
  Subspace diag:                             0.819     0.007   0.0% |
   calc_h_matrix:                            0.769     0.054   0.1% |
    Apply H:                                 0.715     0.691   1.0% |
     HMM T:                                  0.023     0.023   0.0% |
   diagonalize:                              0.023     0.023   0.0% |
   rotate_psi:                               0.020     0.020   0.0% |
  calc. matrices:                            1.016     0.106   0.2% |
   Apply H:                                  0.910     0.893   1.3% ||
    HMM T:                                   0.017     0.017   0.0% |
  diagonalize:                               0.034     0.034   0.0% |
  rotate_psi:                                0.014     0.014   0.0% |
 Density:                                   33.648     0.001   0.0% |
  Atomic density matrices:                   0.021     0.021   0.0% |
  Mix:                                      33.174    33.174  47.9% |------------------|
  Multipole moments:                         0.005     0.005   0.0% |
  Pseudo density:                            0.447     0.181   0.3% |
   Symmetrize density:                       0.266     0.266   0.4% |
 Hamiltonian:                               20.511     0.050   0.1% |
  Atomic:                                    3.530     0.035   0.1% |
   XC Correction:                            3.494     3.494   5.0% |-|
  Calculate atomic Hamiltonians:             0.487     0.487   0.7% |
  Communicate:                               0.001     0.001   0.0% |
  Poisson:                                   0.111     0.111   0.2% |
  XC 3D grid:                               16.332    16.332  23.6% |--------|
 Orthonormalize:                             0.007     0.000   0.0% |
  calc_s_matrix:                             0.001     0.001   0.0% |
  inverse-cholesky:                          0.001     0.001   0.0% |
  projections:                               0.003     0.003   0.0% |
  rotate_psi_s:                              0.000     0.000   0.0% |
Set symmetry:                                0.001     0.001   0.0% |
Other:                                       1.717     1.717   2.5% ||
-------------------------------------------------------------------
Total:                                                69.304 100.0%

Date: Fri Feb 17 11:26:45 2023
