
  ___ ___ ___ _ _ _  
 |   |   |_  | | | | 
 | | | | | . | | | | 
 |__ |  _|___|_____|  22.8.0
 |___|_|             

User:   gotols@vera1
Date:   Fri Feb 17 11:02:04 2023
Arch:   x86_64
Pid:    100393
CWD:    /cephyr/users/gotols/Vera/TIF320-Computational-materials-and-molecular-physics-Assignments
Python: 3.10.4
gpaw:   /apps/Arch/software/GPAW/22.8.0-foss-2022a/lib/python3.10/site-packages/gpaw
_gpaw:  /apps/Arch/software/GPAW/22.8.0-foss-2022a/lib/python3.10/site-packages/
        _gpaw.cpython-310-x86_64-linux-gnu.so
ase:    /apps/Arch/software/ASE/3.22.1-foss-2022a/lib/python3.10/site-packages/ase (version 3.22.1)
numpy:  /apps/Arch/software/SciPy-bundle/2022.05-foss-2022a/lib/python3.10/site-packages/numpy (version 1.22.3)
scipy:  /apps/Arch/software/SciPy-bundle/2022.05-foss-2022a/lib/python3.10/site-packages/scipy (version 1.8.1)
libxc:  5.2.3
units:  Angstrom and eV
cores: 1
OpenMP: False
OMP_NUM_THREADS: 1

Input parameters:
  kpts: {gamma: True}
  mode: {ecut: 450.00000000000006,
         name: pw}
  xc: PBE

System changes: positions, numbers, cell, pbc, initial_charges, initial_magmoms 

Initialize ...

species:
  O:
    name: Oxygen
    id: 32ecd46bf208036f09c70b0ec9a88b78
    Z: 8.0
    valence: 6
    core: 2
    charge: 0.0
    file: /apps/Common/software/GPAW-setups/0.9.20000/O.PBE.gz
    compensation charges: {type: gauss,
                           rc: 0.21,
                           lmax: 2}
    cutoffs: {filter: 1.17,
              core: 0.83}
    valence states:
      #              energy  rcut
      - 2s(2.00)   -23.961   0.688
      - 2p(4.00)    -9.029   0.598
      -  s           3.251   0.688
      -  p          18.182   0.598
      -  d           0.000   0.619
  
    # Using partial waves for O as LCAO basis

  C:
    name: Carbon
    id: 4aa54d4b901d75f77cc0ea3eec22967b
    Z: 6.0
    valence: 4
    core: 2
    charge: 0.0
    file: /apps/Common/software/GPAW-setups/0.9.20000/C.PBE.gz
    compensation charges: {type: gauss,
                           rc: 0.20,
                           lmax: 2}
    cutoffs: {filter: 1.14,
              core: 1.14}
    valence states:
      #              energy  rcut
      - 2s(2.00)   -13.751   0.635
      - 2p(2.00)    -5.284   0.635
      -  s          13.461   0.635
      -  p          21.927   0.635
      -  d           0.000   0.635
  
    # Using partial waves for C as LCAO basis

Reference energy: -3068.480417  # eV

Spin-paired calculation

Convergence criteria:
 Maximum [total energy] change in last 3 cyles: 0.0005 eV / electron
 Maximum integral of absolute [dens]ity change: 0.0001 electrons / valence electron
 Maximum integral of absolute [eigenst]ate change: 4e-08 eV^2 / valence electron
 Maximum number of scf [iter]ations: 333
 (Square brackets indicate name in SCF output, whereas a 'c' in
 the SCF output indicates the quantity has converged.)

Symmetries present (total): 2

  ( 1  0  0)  ( 1  0  0)
  ( 0  1  0)  ( 0 -1  0)
  ( 0  0  1)  ( 0  0  1)

1 k-point (Gamma)
1 k-point in the irreducible part of the Brillouin zone
       k-points in crystal coordinates                weights
   0:     0.00000000    0.00000000    0.00000000          1/1

Wave functions: Plane wave expansion
  Cutoff energy: 450.000 eV
  Number of coefficients: 37529 (reduced to 18765)
  Pulay-stress correction: 0.000000 eV/Ang^3 (de/decut=0.000000)
  Using FFTW library
  ScaLapack parameters: grid=1x1, blocksize=None
  Wavefunction extrapolation:
    Improved wavefunction reuse through dual PAW basis 

Occupation numbers: # Zero width 

Eigensolver
   Davidson(niter=2) 

Densities:
  Coarse grid: 60*60*60 grid
  Fine grid: 120*120*120 grid
  Total Charge: 0.000000 

Density mixing:
  Method: separate
  Backend: pulay
  Linear mixing parameter: 0.05
  old densities: 5
  Damping of long wavelength oscillations: 50 

Hamiltonian:
  XC and Coulomb potentials evaluated on a 120*120*120 grid
  Using the PBE Exchange-Correlation functional
  External potential:
    NoExternalPotential
 

XC parameters: PBE with 2 nearest neighbor stencil

Memory estimate:
  Process memory now: 476.88 MiB
  Calculator: 151.49 MiB
    Density: 109.04 MiB
      Arrays: 42.85 MiB
      Localized functions: 49.71 MiB
      Mixer: 16.48 MiB
    Hamiltonian: 29.23 MiB
      Arrays: 28.02 MiB
      XC: 0.00 MiB
      Poisson: 0.00 MiB
      vbar: 1.21 MiB
    Wavefunctions: 13.23 MiB
      Arrays psit_nG: 2.29 MiB
      Eigensolver: 3.73 MiB
      Projections: 0.00 MiB
      Projectors: 2.72 MiB
      PW-descriptor: 4.49 MiB

Total number of cores used: 1

Number of atoms: 2
Number of atomic orbitals: 8
Number of bands in calculation: 8
Number of valence electrons: 10
Bands to converge: occupied

... initialized

Initializing position-dependent things.

Density initialized from atomic densities
Creating initial wave functions:
  8 bands from LCAO basis set

        .----------------------------.  
       /|                            |  
      / |                            |  
     /  |                            |  
    /   |                            |  
   /    |                            |  
  /     |                            |  
 *      |                            |  
 |      |                            |  
 |      |                            |  
 |      |          O                 |  
 |      |                            |  
 |      |          C                 |  
 |      |                            |  
 |      |                            |  
 |      .----------------------------.  
 |     /                            /   
 |    /                            /    
 |   /                            /     
 |  /                            /      
 | /                            /       
 |/                            /        
 *----------------------------*         

Positions:
   0 O      5.990000    6.000000    6.575170    ( 0.0000,  0.0000,  0.0000)
   1 C      6.000000    6.000000    5.424830    ( 0.0000,  0.0000,  0.0000)

Unit cell:
           periodic     x           y           z      points  spacing
  1. axis:    no    12.000000    0.000000    0.000000    60     0.2000
  2. axis:    no     0.000000   12.000000    0.000000    60     0.2000
  3. axis:    no     0.000000    0.000000   12.000000    60     0.2000

  Lengths:  12.000000  12.000000  12.000000
  Angles:   90.000000  90.000000  90.000000

Effective grid spacing dv^(1/3) = 0.2000

     iter     time        total  log10-change:
                         energy  eigst   dens
iter:   1 11:02:11   -14.756065
iter:   2 11:02:14   -14.699316  -1.16  -0.92
iter:   3 11:02:17   -14.333377  -1.48  -0.95
iter:   4 11:02:20   -14.268321  -2.08  -1.18
iter:   5 11:02:24   -14.217974  -1.54  -1.32
iter:   6 11:02:28   -14.218996  -2.62  -1.71
iter:   7 11:02:32   -14.195459  -2.44  -1.70
iter:   8 11:02:36   -14.194206  -3.46  -2.34
iter:   9 11:02:40   -14.194173c -4.84  -2.80
iter:  10 11:02:43   -14.194243c -4.49  -2.84
iter:  11 11:02:47   -14.194153c -5.01  -2.92
iter:  12 11:02:50   -14.194151c -5.74  -3.56
iter:  13 11:02:54   -14.194151c -6.54  -3.66
iter:  14 11:02:58   -14.194150c -6.78  -3.70
iter:  15 11:03:02   -14.194150c -7.42c -3.82
iter:  16 11:03:06   -14.194150c -7.06  -3.86
iter:  17 11:03:09   -14.194150c -7.43c -4.27c

Converged after 17 iterations.

Dipole moment: (-0.000352, -0.000000, 0.035466) |e|*Ang

Energy contributions relative to reference atoms: (reference = -3068.480417)

Kinetic:         +9.944364
Potential:      -13.496419
External:        +0.000000
XC:             -10.608146
Entropy (-ST):   +0.000000
Local:           -0.033949
--------------------------
Free energy:    -14.194150
Extrapolated:   -14.194150

 Band  Eigenvalues  Occupancy
    0    -29.03622    2.00000
    1    -14.07526    2.00000
    2    -11.56052    2.00000
    3    -11.56045    2.00000
    4     -8.97096    2.00000
    5     -2.09481    0.00000
    6     -2.09478    0.00000
    7     -0.22803    0.00000

Fermi level: -5.53288

Gap: 6.876 eV
Transition (v -> c):
  (s=0, k=0, n=4, [0.00, 0.00, 0.00]) -> (s=0, k=0, n=5, [0.00, 0.00, 0.00])

Forces in eV/Ang:
  0 O     0.02359    0.00000   -1.06755
  1 C    -0.00942    0.00000    1.08682

System changes: positions 

Initializing position-dependent things.

Density initialized from wave functions
        .----------------------------.  
       /|                            |  
      / |                            |  
     /  |                            |  
    /   |                            |  
   /    |                            |  
  /     |                            |  
 *      |                            |  
 |      |                            |  
 |      |                            |  
 |      |          O                 |  
 |      |                            |  
 |      |          C                 |  
 |      |                            |  
 |      |                            |  
 |      .----------------------------.  
 |     /                            /   
 |    /                            /    
 |   /                            /     
 |  /                            /      
 | /                            /       
 |/                            /        
 *----------------------------*         

Positions:
   0 O      6.010000    6.000000    6.575170    ( 0.0000,  0.0000,  0.0000)
   1 C      6.000000    6.000000    5.424830    ( 0.0000,  0.0000,  0.0000)

Unit cell:
           periodic     x           y           z      points  spacing
  1. axis:    no    12.000000    0.000000    0.000000    60     0.2000
  2. axis:    no     0.000000   12.000000    0.000000    60     0.2000
  3. axis:    no     0.000000    0.000000   12.000000    60     0.2000

  Lengths:  12.000000  12.000000  12.000000
  Angles:   90.000000  90.000000  90.000000

Effective grid spacing dv^(1/3) = 0.2000

     iter     time        total  log10-change:
                         energy  eigst   dens
iter:   1 11:03:14   -14.194595  -2.28
iter:   2 11:03:17   -14.194600  -3.77  -2.48
iter:   3 11:03:20   -14.194165c -4.37  -2.51
iter:   4 11:03:24   -14.194154c -5.30  -3.03
iter:   5 11:03:27   -14.194155c -5.71  -3.23
iter:   6 11:03:31   -14.194152c -6.22  -3.39
iter:   7 11:03:35   -14.194150c -6.28  -3.59
iter:   8 11:03:39   -14.194150c -7.89c -4.05c

Converged after 8 iterations.

Dipole moment: (0.000489, -0.000000, 0.035553) |e|*Ang

Energy contributions relative to reference atoms: (reference = -3068.480417)

Kinetic:         +9.941104
Potential:      -13.492474
External:        +0.000000
XC:             -10.607721
Entropy (-ST):   +0.000000
Local:           -0.035059
--------------------------
Free energy:    -14.194150
Extrapolated:   -14.194150

 Band  Eigenvalues  Occupancy
    0    -29.03618    2.00000
    1    -14.07569    2.00000
    2    -11.56064    2.00000
    3    -11.56056    2.00000
    4     -8.97079    2.00000
    5     -2.09470    0.00000
    6     -2.09467    0.00000
    7     -0.22805    0.00000

Fermi level: -5.53274

Gap: 6.876 eV
Transition (v -> c):
  (s=0, k=0, n=4, [0.00, 0.00, 0.00]) -> (s=0, k=0, n=5, [0.00, 0.00, 0.00])

Forces in eV/Ang:
  0 O    -0.04654    0.00000   -1.07560
  1 C     0.01089    0.00000    1.08952

System changes: positions 

Initializing position-dependent things.

Timing:                                      incl.     excl.
-------------------------------------------------------------------
Density initialized from wave functions:     0.107     0.085   0.1% |
 Symmetrize density:                         0.022     0.022   0.0% |
Forces:                                      0.478     0.478   0.5% |
Hamiltonian:                                 1.446     0.008   0.0% |
 Atomic:                                     0.118     0.002   0.0% |
  XC Correction:                             0.116     0.116   0.1% |
 Calculate atomic Hamiltonians:              0.069     0.069   0.1% |
 Communicate:                                0.000     0.000   0.0% |
 Initialize Hamiltonian:                     0.001     0.001   0.0% |
 Poisson:                                    0.012     0.012   0.0% |
 XC 3D grid:                                 1.238     1.238   1.3% ||
LCAO initialization:                         0.104     0.069   0.1% |
 LCAO eigensolver:                           0.006     0.000   0.0% |
  Calculate projections:                     0.000     0.000   0.0% |
  DenseAtomicCorrection:                     0.000     0.000   0.0% |
  Distribute overlap matrix:                 0.000     0.000   0.0% |
  Orbital Layouts:                           0.001     0.001   0.0% |
  Potential matrix:                          0.005     0.005   0.0% |
 LCAO to grid:                               0.022     0.022   0.0% |
 Set positions (LCAO WFS):                   0.007     0.001   0.0% |
  Basic WFS set positions:                   0.000     0.000   0.0% |
  Basis functions set positions:             0.000     0.000   0.0% |
  P tci:                                     0.002     0.002   0.0% |
  ST tci:                                    0.001     0.001   0.0% |
  mktci:                                     0.002     0.002   0.0% |
PWDescriptor:                                0.694     0.694   0.7% |
Redistribute:                                0.001     0.001   0.0% |
SCF-cycle:                                  88.005     0.119   0.1% |
 Davidson:                                  51.224    37.556  39.2% |---------------|
  Apply H:                                   1.709     1.690   1.8% ||
   HMM T:                                    0.019     0.019   0.0% |
  Subspace diag:                             3.902     0.004   0.0% |
   calc_h_matrix:                            0.800     0.029   0.0% |
    Apply H:                                 0.771     0.742   0.8% |
     HMM T:                                  0.029     0.029   0.0% |
   diagonalize:                              0.014     0.014   0.0% |
   rotate_psi:                               3.084     3.084   3.2% ||
  calc. matrices:                            1.801     0.186   0.2% |
   Apply H:                                  1.615     1.580   1.7% ||
    HMM T:                                   0.035     0.035   0.0% |
  diagonalize:                               0.026     0.026   0.0% |
  rotate_psi:                                6.230     6.230   6.5% |--|
 Density:                                   19.567     0.001   0.0% |
  Atomic density matrices:                   0.014     0.014   0.0% |
  Mix:                                      18.102    18.102  18.9% |-------|
  Multipole moments:                         0.003     0.003   0.0% |
  Pseudo density:                            1.448     0.809   0.8% |
   Symmetrize density:                       0.638     0.638   0.7% |
 Hamiltonian:                               17.011     0.113   0.1% |
  Atomic:                                    1.359     0.018   0.0% |
   XC Correction:                            1.341     1.341   1.4% ||
  Calculate atomic Hamiltonians:             0.850     0.850   0.9% |
  Communicate:                               0.000     0.000   0.0% |
  Poisson:                                   0.146     0.146   0.2% |
  XC 3D grid:                               14.543    14.543  15.2% |-----|
 Orthonormalize:                             0.085     0.000   0.0% |
  calc_s_matrix:                             0.002     0.002   0.0% |
  inverse-cholesky:                          0.001     0.001   0.0% |
  projections:                               0.007     0.007   0.0% |
  rotate_psi_s:                              0.075     0.075   0.1% |
Set symmetry:                                0.001     0.001   0.0% |
Other:                                       4.915     4.915   5.1% |-|
-------------------------------------------------------------------
Total:                                                95.752 100.0%

Date: Fri Feb 17 11:03:40 2023
