
  ___ ___ ___ _ _ _  
 |   |   |_  | | | | 
 | | | | | . | | | | 
 |__ |  _|___|_____|  22.8.0
 |___|_|             

User:   gotols@vera1
Date:   Fri Feb 17 14:46:34 2023
Arch:   x86_64
Pid:    721143
CWD:    /cephyr/users/gotols/Vera/TIF320-Computational-materials-and-molecular-physics-Assignments/Assignment 4
Python: 3.10.4
gpaw:   /apps/Arch/software/GPAW/22.8.0-foss-2022a/lib/python3.10/site-packages/gpaw
_gpaw:  /apps/Arch/software/GPAW/22.8.0-foss-2022a/lib/python3.10/site-packages/
        _gpaw.cpython-310-x86_64-linux-gnu.so
ase:    /apps/Arch/software/ASE/3.22.1-foss-2022a/lib/python3.10/site-packages/ase (version 3.22.1)
numpy:  /apps/Arch/software/SciPy-bundle/2022.05-foss-2022a/lib/python3.10/site-packages/numpy (version 1.22.3)
scipy:  /apps/Arch/software/SciPy-bundle/2022.05-foss-2022a/lib/python3.10/site-packages/scipy (version 1.8.1)
libxc:  5.2.3
units:  Angstrom and eV
cores: 1
OpenMP: False
OMP_NUM_THREADS: 1

Input parameters:
  kpts: {gamma: True}
  mode: {ecut: 450.00000000000006,
         name: pw}
  xc: PBE

System changes: positions, numbers, cell, pbc, initial_charges, initial_magmoms 

Initialize ...

species:
  O:
    name: Oxygen
    id: 32ecd46bf208036f09c70b0ec9a88b78
    Z: 8.0
    valence: 6
    core: 2
    charge: 0.0
    file: /apps/Common/software/GPAW-setups/0.9.20000/O.PBE.gz
    compensation charges: {type: gauss,
                           rc: 0.21,
                           lmax: 2}
    cutoffs: {filter: 1.17,
              core: 0.83}
    valence states:
      #              energy  rcut
      - 2s(2.00)   -23.961   0.688
      - 2p(4.00)    -9.029   0.598
      -  s           3.251   0.688
      -  p          18.182   0.598
      -  d           0.000   0.619
  
    # Using partial waves for O as LCAO basis

Reference energy: -4081.704602  # eV

Spin-polarized calculation.
Magnetic moment: 2.000000

Convergence criteria:
 Maximum [total energy] change in last 3 cyles: 0.0005 eV / electron
 Maximum integral of absolute [dens]ity change: 0.0001 electrons / valence electron
 Maximum integral of absolute [eigenst]ate change: 4e-08 eV^2 / valence electron
 Maximum number of scf [iter]ations: 333
 (Square brackets indicate name in SCF output, whereas a 'c' in
 the SCF output indicates the quantity has converged.)

Symmetries present (total): 16

  ( 1  0  0)  ( 1  0  0)  ( 1  0  0)  ( 1  0  0)  ( 0  1  0)  ( 0  1  0)
  ( 0  1  0)  ( 0  1  0)  ( 0 -1  0)  ( 0 -1  0)  ( 1  0  0)  ( 1  0  0)
  ( 0  0  1)  ( 0  0 -1)  ( 0  0  1)  ( 0  0 -1)  ( 0  0  1)  ( 0  0 -1)

  ( 0  1  0)  ( 0  1  0)  ( 0 -1  0)  ( 0 -1  0)  ( 0 -1  0)  ( 0 -1  0)
  (-1  0  0)  (-1  0  0)  ( 1  0  0)  ( 1  0  0)  (-1  0  0)  (-1  0  0)
  ( 0  0  1)  ( 0  0 -1)  ( 0  0  1)  ( 0  0 -1)  ( 0  0  1)  ( 0  0 -1)

  (-1  0  0)  (-1  0  0)  (-1  0  0)  (-1  0  0)
  ( 0  1  0)  ( 0  1  0)  ( 0 -1  0)  ( 0 -1  0)
  ( 0  0  1)  ( 0  0 -1)  ( 0  0  1)  ( 0  0 -1)

1 k-point (Gamma)
1 k-point in the irreducible part of the Brillouin zone
       k-points in crystal coordinates                weights
   0:     0.00000000    0.00000000    0.00000000          1/1

Wave functions: Plane wave expansion
  Cutoff energy: 450.000 eV
  Number of coefficients: 37529 (reduced to 18765)
  Pulay-stress correction: 0.000000 eV/Ang^3 (de/decut=0.000000)
  Using FFTW library
  ScaLapack parameters: grid=1x1, blocksize=None
  Wavefunction extrapolation:
    Improved wavefunction reuse through dual PAW basis 

Occupation numbers: # Zero width 

Eigensolver
   Davidson(niter=2) 

Densities:
  Coarse grid: 60*60*60 grid
  Fine grid: 120*120*120 grid
  Total Charge: 0.000000 

Density mixing:
  Method: difference
  Backend: pulay
  Linear mixing parameter: 0.05
  old densities: 5
  Damping of long wavelength oscillations: 50 

Hamiltonian:
  XC and Coulomb potentials evaluated on a 120*120*120 grid
  Using the PBE Exchange-Correlation functional
  External potential:
    NoExternalPotential
 

XC parameters: PBE with 2 nearest neighbor stencil

Memory estimate:
  Process memory now: 715.81 MiB
  Calculator: 178.82 MiB
    Density: 120.36 MiB
      Arrays: 57.68 MiB
      Localized functions: 39.61 MiB
      Mixer: 23.07 MiB
    Hamiltonian: 43.66 MiB
      Arrays: 42.85 MiB
      XC: 0.00 MiB
      Poisson: 0.00 MiB
      vbar: 0.81 MiB
    Wavefunctions: 14.80 MiB
      Arrays psit_nG: 4.58 MiB
      Eigensolver: 3.73 MiB
      Projections: 0.00 MiB
      Projectors: 2.00 MiB
      PW-descriptor: 4.49 MiB

Total number of cores used: 1

Number of atoms: 2
Number of atomic orbitals: 8
Number of bands in calculation: 8
Number of valence electrons: 12
Bands to converge: occupied

... initialized

Initializing position-dependent things.

Density initialized from atomic densities
Creating initial wave functions:
  8 bands from LCAO basis set

        .----------------------------.  
       /|                            |  
      / |                            |  
     /  |                            |  
    /   |                            |  
   /    |                            |  
  /     |                            |  
 *      |                            |  
 |      |                            |  
 |      |                            |  
 |      |          O                 |  
 |      |                            |  
 |      |          O                 |  
 |      |                            |  
 |      |                            |  
 |      .----------------------------.  
 |     /                            /   
 |    /                            /    
 |   /                            /     
 |  /                            /      
 | /                            /       
 |/                            /        
 *----------------------------*         

Positions:
   0 O      6.000000    6.000000    6.622978    ( 0.0000,  0.0000,  1.0000)
   1 O      6.000000    6.000000    5.377022    ( 0.0000,  0.0000,  1.0000)

Unit cell:
           periodic     x           y           z      points  spacing
  1. axis:    no    12.000000    0.000000    0.000000    60     0.2000
  2. axis:    no     0.000000   12.000000    0.000000    60     0.2000
  3. axis:    no     0.000000    0.000000   12.000000    60     0.2000

  Lengths:  12.000000  12.000000  12.000000
  Angles:   90.000000  90.000000  90.000000

Effective grid spacing dv^(1/3) = 0.2000

     iter     time        total  log10-change:  magmom
                         energy  eigst   dens
iter:   1 14:46:43    -8.515915                  +1.9998
iter:   2 14:46:50    -8.830776  -1.32  -1.22    +1.9999
iter:   3 14:46:57    -8.732968  -1.60  -1.25    +2.0000
iter:   4 14:47:05    -8.731904  -2.01  -1.63    +2.0000
iter:   5 14:47:13    -8.734359c -2.46  -2.00    +2.0000
iter:   6 14:47:21    -8.727972  -2.77  -2.03    +2.0000
iter:   7 14:47:30    -8.728657  -3.73  -2.76    +2.0000
iter:   8 14:47:38    -8.727723c -3.70  -2.54    +2.0000
iter:   9 14:47:46    -8.727734c -5.00  -3.44    +2.0000
iter:  10 14:47:54    -8.727724c -6.17  -3.34    +2.0000
iter:  11 14:48:03    -8.727717c -6.42  -3.42    +2.0000
iter:  12 14:48:12    -8.727726c -6.45  -3.46    +2.0000
iter:  13 14:48:20    -8.727713c -5.56  -3.40    +2.0000
iter:  14 14:48:28    -8.727714c -6.23  -3.52    +2.0000
iter:  15 14:48:37    -8.727715c -6.33  -3.63    +2.0000
iter:  16 14:48:45    -8.727714c -7.55c -3.70    +2.0000
iter:  17 14:48:53    -8.727714c -6.06  -3.73    +2.0000
iter:  18 14:49:02    -8.727713c -6.70  -3.93    +2.0000
iter:  19 14:49:10    -8.727713c -8.23c -4.25c   +2.0000

Converged after 19 iterations.

Dipole moment: (-0.000000, -0.000000, 0.000000) |e|*Ang

Total magnetic moment: (0.000000, 0.000000, 2.000000)
Local magnetic moments:
   0 O  ( 0.000000,  0.000000,  0.717343)
   1 O  ( 0.000000,  0.000000,  0.717343)

Energy contributions relative to reference atoms: (reference = -4081.704602)

Kinetic:         +1.568787
Potential:       -2.028447
External:        +0.000000
XC:              -8.238147
Entropy (-ST):   +0.000000
Local:           -0.029906
--------------------------
Free energy:     -8.727713
Extrapolated:    -8.727713

Spin contamination: 0.027239 electrons
                   Up                     Down
 Band  Eigenvalues  Occupancy  Eigenvalues  Occupancy
    0    -32.20488    1.00000    -30.98106    1.00000
    1    -20.87450    1.00000    -19.07361    1.00000
    2    -13.40149    1.00000    -12.50258    1.00000
    3    -13.09835    1.00000    -11.25050    1.00000
    4    -13.09835    1.00000    -11.25050    1.00000
    5     -6.96435    1.00000     -4.68043    0.00000
    6     -6.96435    1.00000     -4.68043    0.00000
    7      0.52827    0.00000      0.72440    0.00000

Fermi level: -5.82239

Gap: 2.284 eV
Transition (v -> c):
  (s=0, k=0, n=6, [0.00, 0.00, 0.00]) -> (s=1, k=0, n=5, [0.00, 0.00, 0.00])
Timing:                              incl.     excl.
-----------------------------------------------------------
Hamiltonian:                         2.466     0.005   0.0% |
 Atomic:                             0.136     0.001   0.0% |
  XC Correction:                     0.136     0.136   0.1% |
 Calculate atomic Hamiltonians:      0.044     0.044   0.0% |
 Communicate:                        0.000     0.000   0.0% |
 Initialize Hamiltonian:             0.000     0.000   0.0% |
 Poisson:                            0.016     0.016   0.0% |
 XC 3D grid:                         2.265     2.265   1.5% ||
LCAO initialization:                 0.092     0.025   0.0% |
 LCAO eigensolver:                   0.010     0.000   0.0% |
  Calculate projections:             0.000     0.000   0.0% |
  DenseAtomicCorrection:             0.000     0.000   0.0% |
  Distribute overlap matrix:         0.000     0.000   0.0% |
  Orbital Layouts:                   0.001     0.001   0.0% |
  Potential matrix:                  0.009     0.009   0.0% |
 LCAO to grid:                       0.044     0.044   0.0% |
 Set positions (LCAO WFS):           0.013     0.001   0.0% |
  Basic WFS set positions:           0.001     0.001   0.0% |
  Basis functions set positions:     0.000     0.000   0.0% |
  P tci:                             0.002     0.002   0.0% |
  ST tci:                            0.001     0.001   0.0% |
  mktci:                             0.008     0.008   0.0% |
PWDescriptor:                        0.025     0.025   0.0% |
SCF-cycle:                         151.207     0.061   0.0% |
 Davidson:                          75.838    57.435  36.9% |--------------|
  Apply H:                           2.400     2.311   1.5% ||
   HMM T:                            0.089     0.089   0.1% |
  Subspace diag:                     6.458     0.007   0.0% |
   calc_h_matrix:                    1.833     0.055   0.0% |
    Apply H:                         1.778     1.700   1.1% |
     HMM T:                          0.079     0.079   0.1% |
   diagonalize:                      0.056     0.056   0.0% |
   rotate_psi:                       4.563     4.563   2.9% ||
  calc. matrices:                    2.547     0.292   0.2% |
   Apply H:                          2.255     2.195   1.4% ||
    HMM T:                           0.060     0.060   0.0% |
  diagonalize:                       0.036     0.036   0.0% |
  rotate_psi:                        6.962     6.962   4.5% |-|
 Density:                           28.332     0.001   0.0% |
  Atomic density matrices:           0.030     0.030   0.0% |
  Mix:                              19.486    19.486  12.5% |----|
  Multipole moments:                 0.003     0.003   0.0% |
  Pseudo density:                    8.813     1.158   0.7% |
   Symmetrize density:               7.655     7.655   4.9% |-|
 Hamiltonian:                       46.849     0.127   0.1% |
  Atomic:                            2.460     0.016   0.0% |
   XC Correction:                    2.444     2.444   1.6% ||
  Calculate atomic Hamiltonians:     0.762     0.762   0.5% |
  Communicate:                       0.000     0.000   0.0% |
  Poisson:                           0.140     0.140   0.1% |
  XC 3D grid:                       43.359    43.359  27.9% |----------|
 Orthonormalize:                     0.127     0.000   0.0% |
  calc_s_matrix:                     0.002     0.002   0.0% |
  inverse-cholesky:                  0.000     0.000   0.0% |
  projections:                       0.073     0.073   0.0% |
  rotate_psi_s:                      0.052     0.052   0.0% |
Set symmetry:                        0.004     0.004   0.0% |
Other:                               1.709     1.709   1.1% |
-----------------------------------------------------------
Total:                                       155.502 100.0%

Date: Fri Feb 17 14:49:10 2023
