
  ___ ___ ___ _ _ _  
 |   |   |_  | | | | 
 | | | | | . | | | | 
 |__ |  _|___|_____|  22.8.0
 |___|_|             

User:   gotols@vera03-2
Date:   Tue Feb 14 15:40:37 2023
Arch:   x86_64
Pid:    71373
CWD:    /cephyr/users/gotols/Vera/TIF320-Computational-materials-and-molecular-physics-Assignments
Python: 3.10.4
gpaw:   /apps/Arch/software/GPAW/22.8.0-foss-2022a/lib/python3.10/site-packages/gpaw
_gpaw:  /apps/Arch/software/GPAW/22.8.0-foss-2022a/lib/python3.10/site-packages/
        _gpaw.cpython-310-x86_64-linux-gnu.so
ase:    /apps/Arch/software/ASE/3.22.1-foss-2022a/lib/python3.10/site-packages/ase (version 3.22.1)
numpy:  /apps/Arch/software/SciPy-bundle/2022.05-foss-2022a/lib/python3.10/site-packages/numpy (version 1.22.3)
scipy:  /apps/Arch/software/SciPy-bundle/2022.05-foss-2022a/lib/python3.10/site-packages/scipy (version 1.8.1)
libxc:  5.2.3
units:  Angstrom and eV
cores: 1
OpenMP: False
OMP_NUM_THREADS: 1

Input parameters:
  kpts: [12 12 12]
  mode: {ecut: 450.00000000000006,
         name: pw}
  xc: PBE

System changes: positions, numbers, cell, pbc, initial_charges, initial_magmoms 

Initialize ...

species:
  Au:
    name: Gold
    id: b12133f335f6ca0d89c4b1ccaa844e9a
    Z: 79.0
    valence: 11
    core: 68
    charge: 0.0
    file: /apps/Common/software/GPAW-setups/0.9.20000/Au.PBE.gz
    compensation charges: {type: gauss,
                           rc: 0.42,
                           lmax: 2}
    cutoffs: {filter: 2.33,
              core: 2.81}
    valence states:
      #              energy  rcut
      - 6s(1.00)    -5.728   1.323
      - 6p(0.00)    -0.775   1.323
      - 5d(10.00)    -6.891   1.323
      -  s          21.484   1.323
      -  p          26.436   1.323
      -  d          20.321   1.323
  
    # Using partial waves for Au as LCAO basis

Reference energy: -516598.271109  # eV

Spin-paired calculation

Convergence criteria:
 Maximum [total energy] change in last 3 cyles: 0.0005 eV / electron
 Maximum integral of absolute [dens]ity change: 0.0001 electrons / valence electron
 Maximum integral of absolute [eigenst]ate change: 4e-08 eV^2 / valence electron
 Maximum number of scf [iter]ations: 333
 (Square brackets indicate name in SCF output, whereas a 'c' in
 the SCF output indicates the quantity has converged.)

Symmetries present (total): 48

  ( 1  0  0)  ( 1  0  0)  ( 1  0  0)  ( 1  0  0)  ( 1  0 -1)  ( 1  0 -1)
  ( 1  0 -1)  ( 1 -1  0)  ( 0  1  0)  ( 0  0  1)  ( 1  0  0)  ( 1 -1  0)
  ( 1 -1  0)  ( 1  0 -1)  ( 0  0  1)  ( 0  1  0)  ( 1 -1  0)  ( 1  0  0)

  ( 1  0 -1)  ( 1  0 -1)  ( 1 -1  0)  ( 1 -1  0)  ( 1 -1  0)  ( 1 -1  0)
  ( 0  1 -1)  ( 0  0 -1)  ( 1  0  0)  ( 1  0 -1)  ( 0 -1  1)  ( 0 -1  0)
  ( 0  0 -1)  ( 0  1 -1)  ( 1  0 -1)  ( 1  0  0)  ( 0 -1  0)  ( 0 -1  1)

  ( 0  1  0)  ( 0  1  0)  ( 0  1  0)  ( 0  1  0)  ( 0  1 -1)  ( 0  1 -1)
  ( 1  0  0)  ( 0  1 -1)  ( 0  0  1)  (-1  1  0)  ( 1  0 -1)  ( 0  1  0)
  ( 0  0  1)  (-1  1  0)  ( 1  0  0)  ( 0  1 -1)  ( 0  0 -1)  (-1  1  0)

  ( 0  1 -1)  ( 0  1 -1)  ( 0  0  1)  ( 0  0  1)  ( 0  0  1)  ( 0  0  1)
  ( 0  0 -1)  (-1  1  0)  ( 1  0  0)  ( 0  1  0)  ( 0 -1  1)  (-1  0  1)
  ( 1  0 -1)  ( 0  1  0)  ( 0  1  0)  ( 1  0  0)  (-1  0  1)  ( 0 -1  1)

  ( 0  0 -1)  ( 0  0 -1)  ( 0  0 -1)  ( 0  0 -1)  ( 0 -1  1)  ( 0 -1  1)
  ( 1  0 -1)  ( 0  1 -1)  ( 0 -1  0)  (-1  0  0)  ( 1 -1  0)  ( 0  0  1)
  ( 0  1 -1)  ( 1  0 -1)  (-1  0  0)  ( 0 -1  0)  ( 0 -1  0)  (-1  0  1)

  ( 0 -1  1)  ( 0 -1  1)  ( 0 -1  0)  ( 0 -1  0)  ( 0 -1  0)  ( 0 -1  0)
  ( 0 -1  0)  (-1  0  1)  ( 1 -1  0)  ( 0  0 -1)  ( 0 -1  1)  (-1  0  0)
  ( 1 -1  0)  ( 0  0  1)  ( 0 -1  1)  (-1  0  0)  ( 1 -1  0)  ( 0  0 -1)

  (-1  1  0)  (-1  1  0)  (-1  1  0)  (-1  1  0)  (-1  0  1)  (-1  0  1)
  ( 0  1  0)  ( 0  1 -1)  (-1  0  1)  (-1  0  0)  ( 0  0  1)  ( 0 -1  1)
  ( 0  1 -1)  ( 0  1  0)  (-1  0  0)  (-1  0  1)  ( 0 -1  1)  ( 0  0  1)

  (-1  0  1)  (-1  0  1)  (-1  0  0)  (-1  0  0)  (-1  0  0)  (-1  0  0)
  (-1  1  0)  (-1  0  0)  ( 0  0 -1)  ( 0 -1  0)  (-1  1  0)  (-1  0  1)
  (-1  0  0)  (-1  1  0)  ( 0 -1  0)  ( 0  0 -1)  (-1  0  1)  (-1  1  0)
Note: your k-points are not as symmetric as your crystal!

1728 k-points: 12 x 12 x 12 Monkhorst-Pack grid
182 k-points in the irreducible part of the Brillouin zone
       k-points in crystal coordinates                weights
   0:     0.04166667    0.04166667   -0.04166667          6/1728
   1:     0.04166667    0.04166667    0.04166667          2/1728
   2:     0.12500000   -0.04166667   -0.04166667          6/1728
   3:     0.12500000    0.04166667   -0.12500000         12/1728
   4:     0.12500000    0.04166667   -0.04166667         12/1728
   5:     0.12500000    0.04166667    0.04166667          6/1728
   6:     0.12500000    0.12500000   -0.12500000          6/1728
   7:     0.12500000    0.12500000   -0.04166667          6/1728
   8:     0.12500000    0.12500000    0.04166667          6/1728
   9:     0.12500000    0.12500000    0.12500000          2/1728
          ...
 181:     0.45833333    0.45833333    0.45833333          2/1728

Wave functions: Plane wave expansion
  Cutoff energy: 450.000 eV
  Number of coefficients (min, max): 474, 531
  Pulay-stress correction: 0.000000 eV/Ang^3 (de/decut=0.000000)
  Using FFTW library
  ScaLapack parameters: grid=1x1, blocksize=None
  Wavefunction extrapolation:
    Improved wavefunction reuse through dual PAW basis 

Occupation numbers: Fermi-Dirac:
  width: 0.1000  # eV
 

Eigensolver
   Davidson(niter=2) 

Densities:
  Coarse grid: 16*16*16 grid
  Fine grid: 32*32*32 grid
  Total Charge: 0.000000 

Density mixing:
  Method: separate
  Backend: pulay
  Linear mixing parameter: 0.05
  old densities: 5
  Damping of long wavelength oscillations: 50 

Hamiltonian:
  XC and Coulomb potentials evaluated on a 32*32*32 grid
  Using the PBE Exchange-Correlation functional
  External potential:
    NoExternalPotential
 

XC parameters: PBE with 2 nearest neighbor stencil

Memory estimate:
  Process memory now: 258.17 MiB
  Calculator: 27.97 MiB
    Density: 1.65 MiB
      Arrays: 0.81 MiB
      Localized functions: 0.52 MiB
      Mixer: 0.31 MiB
    Hamiltonian: 0.54 MiB
      Arrays: 0.53 MiB
      XC: 0.00 MiB
      Poisson: 0.00 MiB
      vbar: 0.01 MiB
    Wavefunctions: 25.78 MiB
      Arrays psit_nG: 13.27 MiB
      Eigensolver: 0.13 MiB
      Projections: 0.45 MiB
      Projectors: 10.30 MiB
      PW-descriptor: 1.63 MiB

Total number of cores used: 1

Number of atoms: 1
Number of atomic orbitals: 9
Number of bands in calculation: 9
Number of valence electrons: 11
Bands to converge: occupied

... initialized

Initializing position-dependent things.

Density initialized from atomic densities
Creating initial wave functions:
  9 bands from LCAO basis set

                
                
                
       Au       
                
                
                
                

Positions:
   0 Au     0.000000    0.000000    0.000000    ( 0.0000,  0.0000,  0.0000)

Unit cell:
           periodic     x           y           z      points  spacing
  1. axis:    yes    0.000000    2.250000    2.250000    16     0.1624
  2. axis:    yes    2.250000    0.000000    2.250000    16     0.1624
  3. axis:    yes    2.250000    2.250000    0.000000    16     0.1624

  Lengths:   3.181981   3.181981   3.181981
  Angles:   60.000000  60.000000  60.000000

Effective grid spacing dv^(1/3) = 0.1772

     iter     time        total  log10-change:
                         energy  eigst   dens
iter:   1 15:40:40    -3.072097
iter:   2 15:40:41    -3.024066  -2.29  -1.33
iter:   3 15:40:42    -2.874015  -1.45  -1.37
iter:   4 15:40:43    -2.860095  -3.53  -1.97
iter:   5 15:40:44    -2.864684  -2.38  -2.01
iter:   6 15:40:45    -2.854958  -3.04  -2.14
iter:   7 15:40:46    -2.855110  -5.08  -3.46
iter:   8 15:40:47    -2.855197c -5.67  -3.02
iter:   9 15:40:48    -2.854968c -4.51  -2.93
iter:  10 15:40:49    -2.854969c -6.51  -4.44c
iter:  11 15:40:50    -2.854968c -8.04c -4.34c

Converged after 11 iterations.

Dipole moment: (-0.000000, -0.000000, -0.000000) |e|*Ang

Energy contributions relative to reference atoms: (reference = -516598.271109)

Kinetic:        -17.802436
Potential:      +14.707402
External:        +0.000000
XC:              +0.164901
Entropy (-ST):   -0.010701
Local:           +0.080516
--------------------------
Free energy:     -2.860319
Extrapolated:    -2.854968

Showing only first 2 kpts
 Kpt  Band  Eigenvalues  Occupancy
  0     3      2.33494    2.00000
  0     4      3.12038    2.00000
  0     5      3.19101    2.00000
  0     6     20.94829    0.00000

  1     3      2.29058    2.00000
  1     4      3.16768    2.00000
  1     5      3.16768    2.00000
  1     6     20.96822    0.00000


Fermi level: 5.72180

No gap
Writing to Assignment 4/output/Au_calculation_a=4.5.gpw (mode='')

Timing:                              incl.     excl.
-----------------------------------------------------------
Hamiltonian:                         0.058     0.000   0.0% |
 Atomic:                             0.048     0.000   0.0% |
  XC Correction:                     0.047     0.047   0.4% |
 Calculate atomic Hamiltonians:      0.000     0.000   0.0% |
 Communicate:                        0.000     0.000   0.0% |
 Initialize Hamiltonian:             0.000     0.000   0.0% |
 Poisson:                            0.000     0.000   0.0% |
 XC 3D grid:                         0.009     0.009   0.1% |
LCAO initialization:                 1.100     0.040   0.3% |
 LCAO eigensolver:                   0.154     0.004   0.0% |
  Calculate projections:             0.002     0.002   0.0% |
  DenseAtomicCorrection:             0.009     0.009   0.1% |
  Distribute overlap matrix:         0.002     0.002   0.0% |
  Orbital Layouts:                   0.022     0.022   0.2% |
  Potential matrix:                  0.086     0.086   0.7% |
  Sum over cells:                    0.029     0.029   0.2% |
 LCAO to grid:                       0.496     0.496   3.8% |-|
 Set positions (LCAO WFS):           0.411     0.058   0.4% |
  Basic WFS set positions:           0.001     0.001   0.0% |
  Basis functions set positions:     0.000     0.000   0.0% |
  P tci:                             0.096     0.096   0.7% |
  ST tci:                            0.247     0.247   1.9% ||
  mktci:                             0.008     0.008   0.1% |
PWDescriptor:                        0.017     0.017   0.1% |
SCF-cycle:                          11.323     0.436   3.4% ||
 Davidson:                           9.698     2.340  18.1% |------|
  Apply H:                           1.042     0.950   7.3% |--|
   HMM T:                            0.093     0.093   0.7% |
  Subspace diag:                     1.775     0.094   0.7% |
   calc_h_matrix:                    1.293     0.242   1.9% ||
    Apply H:                         1.051     0.950   7.4% |--|
     HMM T:                          0.101     0.101   0.8% |
   diagonalize:                      0.237     0.237   1.8% ||
   rotate_psi:                       0.150     0.150   1.2% |
  calc. matrices:                    3.520     1.442  11.2% |---|
   Apply H:                          2.078     1.892  14.6% |-----|
    HMM T:                           0.186     0.186   1.4% ||
  diagonalize:                       0.806     0.806   6.2% |-|
  rotate_psi:                        0.215     0.215   1.7% ||
 Density:                            0.538     0.000   0.0% |
  Atomic density matrices:           0.026     0.026   0.2% |
  Mix:                               0.014     0.014   0.1% |
  Multipole moments:                 0.001     0.001   0.0% |
  Pseudo density:                    0.498     0.401   3.1% ||
   Symmetrize density:               0.097     0.097   0.7% |
 Hamiltonian:                        0.589     0.002   0.0% |
  Atomic:                            0.483     0.004   0.0% |
   XC Correction:                    0.479     0.479   3.7% ||
  Calculate atomic Hamiltonians:     0.004     0.004   0.0% |
  Communicate:                       0.000     0.000   0.0% |
  Poisson:                           0.001     0.001   0.0% |
  XC 3D grid:                        0.099     0.099   0.8% |
 Orthonormalize:                     0.061     0.008   0.1% |
  calc_s_matrix:                     0.016     0.016   0.1% |
  inverse-cholesky:                  0.008     0.008   0.1% |
  projections:                       0.022     0.022   0.2% |
  rotate_psi_s:                      0.006     0.006   0.0% |
Set symmetry:                        0.081     0.081   0.6% |
Other:                               0.350     0.350   2.7% ||
-----------------------------------------------------------
Total:                                        12.929 100.0%

Memory usage: 261.20 MiB
Date: Tue Feb 14 15:40:50 2023
