
  ___ ___ ___ _ _ _  
 |   |   |_  | | | | 
 | | | | | . | | | | 
 |__ |  _|___|_____|  22.8.0
 |___|_|             

User:   gotols@vera33-2
Date:   Wed Feb 15 09:44:49 2023
Arch:   x86_64
Pid:    3133821
CWD:    /cephyr/users/gotols/Vera/TIF320-Computational-materials-and-molecular-physics-Assignments
Python: 3.10.4
gpaw:   /apps/Arch/software/GPAW/22.8.0-foss-2022a/lib/python3.10/site-packages/gpaw
_gpaw:  /apps/Arch/software/GPAW/22.8.0-foss-2022a/lib/python3.10/site-packages/
        _gpaw.cpython-310-x86_64-linux-gnu.so
ase:    /apps/Arch/software/ASE/3.22.1-foss-2022a/lib/python3.10/site-packages/ase (version 3.22.1)
numpy:  /apps/Arch/software/SciPy-bundle/2022.05-foss-2022a/lib/python3.10/site-packages/numpy (version 1.22.3)
scipy:  /apps/Arch/software/SciPy-bundle/2022.05-foss-2022a/lib/python3.10/site-packages/scipy (version 1.8.1)
libxc:  5.2.3
units:  Angstrom and eV
cores: 1
OpenMP: False
OMP_NUM_THREADS: 1

Input parameters:
  kpts: [12 12 12]
  mode: {ecut: 450.00000000000006,
         name: pw}
  xc: PBE

System changes: positions, numbers, cell, pbc, initial_charges, initial_magmoms 

Initialize ...

species:
  Au:
    name: Gold
    id: b12133f335f6ca0d89c4b1ccaa844e9a
    Z: 79.0
    valence: 11
    core: 68
    charge: 0.0
    file: /apps/Common/software/GPAW-setups/0.9.20000/Au.PBE.gz
    compensation charges: {type: gauss,
                           rc: 0.42,
                           lmax: 2}
    cutoffs: {filter: 2.33,
              core: 2.81}
    valence states:
      #              energy  rcut
      - 6s(1.00)    -5.728   1.323
      - 6p(0.00)    -0.775   1.323
      - 5d(10.00)    -6.891   1.323
      -  s          21.484   1.323
      -  p          26.436   1.323
      -  d          20.321   1.323
  
    # Using partial waves for Au as LCAO basis

Reference energy: -516598.271109  # eV

Spin-paired calculation

Convergence criteria:
 Maximum [total energy] change in last 3 cyles: 0.0005 eV / electron
 Maximum integral of absolute [dens]ity change: 0.0001 electrons / valence electron
 Maximum integral of absolute [eigenst]ate change: 4e-08 eV^2 / valence electron
 Maximum number of scf [iter]ations: 333
 (Square brackets indicate name in SCF output, whereas a 'c' in
 the SCF output indicates the quantity has converged.)

Symmetries present (total): 48

  ( 1  0  0)  ( 1  0  0)  ( 1  0  0)  ( 1  0  0)  ( 1  0 -1)  ( 1  0 -1)
  ( 1  0 -1)  ( 1 -1  0)  ( 0  1  0)  ( 0  0  1)  ( 1  0  0)  ( 1 -1  0)
  ( 1 -1  0)  ( 1  0 -1)  ( 0  0  1)  ( 0  1  0)  ( 1 -1  0)  ( 1  0  0)

  ( 1  0 -1)  ( 1  0 -1)  ( 1 -1  0)  ( 1 -1  0)  ( 1 -1  0)  ( 1 -1  0)
  ( 0  1 -1)  ( 0  0 -1)  ( 1  0  0)  ( 1  0 -1)  ( 0 -1  1)  ( 0 -1  0)
  ( 0  0 -1)  ( 0  1 -1)  ( 1  0 -1)  ( 1  0  0)  ( 0 -1  0)  ( 0 -1  1)

  ( 0  1  0)  ( 0  1  0)  ( 0  1  0)  ( 0  1  0)  ( 0  1 -1)  ( 0  1 -1)
  ( 1  0  0)  ( 0  1 -1)  ( 0  0  1)  (-1  1  0)  ( 1  0 -1)  ( 0  1  0)
  ( 0  0  1)  (-1  1  0)  ( 1  0  0)  ( 0  1 -1)  ( 0  0 -1)  (-1  1  0)

  ( 0  1 -1)  ( 0  1 -1)  ( 0  0  1)  ( 0  0  1)  ( 0  0  1)  ( 0  0  1)
  ( 0  0 -1)  (-1  1  0)  ( 1  0  0)  ( 0  1  0)  ( 0 -1  1)  (-1  0  1)
  ( 1  0 -1)  ( 0  1  0)  ( 0  1  0)  ( 1  0  0)  (-1  0  1)  ( 0 -1  1)

  ( 0  0 -1)  ( 0  0 -1)  ( 0  0 -1)  ( 0  0 -1)  ( 0 -1  1)  ( 0 -1  1)
  ( 1  0 -1)  ( 0  1 -1)  ( 0 -1  0)  (-1  0  0)  ( 1 -1  0)  ( 0  0  1)
  ( 0  1 -1)  ( 1  0 -1)  (-1  0  0)  ( 0 -1  0)  ( 0 -1  0)  (-1  0  1)

  ( 0 -1  1)  ( 0 -1  1)  ( 0 -1  0)  ( 0 -1  0)  ( 0 -1  0)  ( 0 -1  0)
  ( 0 -1  0)  (-1  0  1)  ( 1 -1  0)  ( 0  0 -1)  ( 0 -1  1)  (-1  0  0)
  ( 1 -1  0)  ( 0  0  1)  ( 0 -1  1)  (-1  0  0)  ( 1 -1  0)  ( 0  0 -1)

  (-1  1  0)  (-1  1  0)  (-1  1  0)  (-1  1  0)  (-1  0  1)  (-1  0  1)
  ( 0  1  0)  ( 0  1 -1)  (-1  0  1)  (-1  0  0)  ( 0  0  1)  ( 0 -1  1)
  ( 0  1 -1)  ( 0  1  0)  (-1  0  0)  (-1  0  1)  ( 0 -1  1)  ( 0  0  1)

  (-1  0  1)  (-1  0  1)  (-1  0  0)  (-1  0  0)  (-1  0  0)  (-1  0  0)
  (-1  1  0)  (-1  0  0)  ( 0  0 -1)  ( 0 -1  0)  (-1  1  0)  (-1  0  1)
  (-1  0  0)  (-1  1  0)  ( 0 -1  0)  ( 0  0 -1)  (-1  0  1)  (-1  1  0)
Note: your k-points are not as symmetric as your crystal!

1728 k-points: 12 x 12 x 12 Monkhorst-Pack grid
182 k-points in the irreducible part of the Brillouin zone
       k-points in crystal coordinates                weights
   0:     0.04166667    0.04166667   -0.04166667          6/1728
   1:     0.04166667    0.04166667    0.04166667          2/1728
   2:     0.12500000   -0.04166667   -0.04166667          6/1728
   3:     0.12500000    0.04166667   -0.12500000         12/1728
   4:     0.12500000    0.04166667   -0.04166667         12/1728
   5:     0.12500000    0.04166667    0.04166667          6/1728
   6:     0.12500000    0.12500000   -0.12500000          6/1728
   7:     0.12500000    0.12500000   -0.04166667          6/1728
   8:     0.12500000    0.12500000    0.04166667          6/1728
   9:     0.12500000    0.12500000    0.12500000          2/1728
          ...
 181:     0.45833333    0.45833333    0.45833333          2/1728

Wave functions: Plane wave expansion
  Cutoff energy: 450.000 eV
  Number of coefficients (min, max): 390, 413
  Pulay-stress correction: 0.000000 eV/Ang^3 (de/decut=0.000000)
  Using FFTW library
  ScaLapack parameters: grid=1x1, blocksize=None
  Wavefunction extrapolation:
    Improved wavefunction reuse through dual PAW basis 

Occupation numbers: Fermi-Dirac:
  width: 0.1000  # eV
 

Eigensolver
   Davidson(niter=2) 

Densities:
  Coarse grid: 15*15*15 grid
  Fine grid: 30*30*30 grid
  Total Charge: 0.000000 

Density mixing:
  Method: separate
  Backend: pulay
  Linear mixing parameter: 0.05
  old densities: 5
  Damping of long wavelength oscillations: 50 

Hamiltonian:
  XC and Coulomb potentials evaluated on a 30*30*30 grid
  Using the PBE Exchange-Correlation functional
  External potential:
    NoExternalPotential
 

XC parameters: PBE with 2 nearest neighbor stencil

Memory estimate:
  Process memory now: 263.58 MiB
  Calculator: 22.38 MiB
    Density: 1.36 MiB
      Arrays: 0.67 MiB
      Localized functions: 0.43 MiB
      Mixer: 0.26 MiB
    Hamiltonian: 0.45 MiB
      Arrays: 0.44 MiB
      XC: 0.00 MiB
      Poisson: 0.00 MiB
      vbar: 0.01 MiB
    Wavefunctions: 20.58 MiB
      Arrays psit_nG: 10.32 MiB
      Eigensolver: 0.10 MiB
      Projections: 0.45 MiB
      Projectors: 8.43 MiB
      PW-descriptor: 1.28 MiB

Total number of cores used: 1

Number of atoms: 1
Number of atomic orbitals: 9
Number of bands in calculation: 9
Number of valence electrons: 11
Bands to converge: occupied

... initialized

Initializing position-dependent things.

Density initialized from atomic densities
Creating initial wave functions:
  9 bands from LCAO basis set

                
                
                
       Au       
                
                
                
                

Positions:
   0 Au     0.000000    0.000000    0.000000    ( 0.0000,  0.0000,  0.0000)

Unit cell:
           periodic     x           y           z      points  spacing
  1. axis:    yes    0.000000    2.106000    2.106000    15     0.1621
  2. axis:    yes    2.106000    0.000000    2.106000    15     0.1621
  3. axis:    yes    2.106000    2.106000    0.000000    15     0.1621

  Lengths:   2.978334   2.978334   2.978334
  Angles:   60.000000  60.000000  60.000000

Effective grid spacing dv^(1/3) = 0.1769

     iter     time        total  log10-change:
                         energy  eigst   dens
iter:   1 09:44:52    -3.408894
iter:   2 09:44:53    -3.356868  -2.11  -1.32
iter:   3 09:44:54    -3.180690  -1.44  -1.35
iter:   4 09:44:55    -3.146783  -3.00  -1.87
iter:   5 09:44:57    -3.147269  -2.51  -2.05
iter:   6 09:44:58    -3.141201  -3.47  -2.24
iter:   7 09:44:59    -3.141292  -5.85  -3.01
iter:   8 09:45:00    -3.141127c -4.44  -2.91
iter:   9 09:45:01    -3.141088c -5.84  -3.40
iter:  10 09:45:03    -3.141088c -7.77c -4.18c

Converged after 10 iterations.

Dipole moment: (-0.000000, -0.000000, -0.000000) |e|*Ang

Energy contributions relative to reference atoms: (reference = -516598.271109)

Kinetic:        -11.508710
Potential:       +9.425256
External:        +0.000000
XC:              -1.172943
Entropy (-ST):   -0.008544
Local:           +0.119581
--------------------------
Free energy:     -3.145360
Extrapolated:    -3.141088

Showing only first 2 kpts
 Kpt  Band  Eigenvalues  Occupancy
  0     3      4.30347    2.00000
  0     4      5.42671    2.00000
  0     5      5.53143    2.00000
  0     6     24.25871    0.00000

  1     3      4.24233    2.00000
  1     4      5.49832    2.00000
  1     5      5.49832    2.00000
  1     6     24.15250    0.00000


Fermi level: 8.47324

No gap
Writing to Assignment 4/output/Au_calculation_a=4.21.gpw (mode='')

Timing:                              incl.     excl.
-----------------------------------------------------------
Hamiltonian:                         0.066     0.000   0.0% |
 Atomic:                             0.057     0.000   0.0% |
  XC Correction:                     0.056     0.056   0.4% |
 Calculate atomic Hamiltonians:      0.000     0.000   0.0% |
 Communicate:                        0.000     0.000   0.0% |
 Initialize Hamiltonian:             0.000     0.000   0.0% |
 Poisson:                            0.000     0.000   0.0% |
 XC 3D grid:                         0.009     0.009   0.1% |
LCAO initialization:                 1.171     0.040   0.3% |
 LCAO eigensolver:                   0.198     0.005   0.0% |
  Calculate projections:             0.003     0.003   0.0% |
  DenseAtomicCorrection:             0.010     0.010   0.1% |
  Distribute overlap matrix:         0.002     0.002   0.0% |
  Orbital Layouts:                   0.025     0.025   0.2% |
  Potential matrix:                  0.119     0.119   0.9% |
  Sum over cells:                    0.033     0.033   0.2% |
 LCAO to grid:                       0.524     0.524   3.8% |-|
 Set positions (LCAO WFS):           0.410     0.070   0.5% |
  Basic WFS set positions:           0.001     0.001   0.0% |
  Basis functions set positions:     0.000     0.000   0.0% |
  P tci:                             0.096     0.096   0.7% |
  ST tci:                            0.235     0.235   1.7% ||
  mktci:                             0.008     0.008   0.1% |
PWDescriptor:                        0.016     0.016   0.1% |
SCF-cycle:                          12.030     0.424   3.1% ||
 Davidson:                          10.552     2.616  19.0% |-------|
  Apply H:                           1.006     0.902   6.6% |--|
   HMM T:                            0.104     0.104   0.8% |
  Subspace diag:                     1.881     0.107   0.8% |
   calc_h_matrix:                    1.306     0.294   2.1% ||
    Apply H:                         1.012     0.903   6.6% |--|
     HMM T:                          0.109     0.109   0.8% |
   diagonalize:                      0.275     0.275   2.0% ||
   rotate_psi:                       0.193     0.193   1.4% ||
  calc. matrices:                    3.800     1.797  13.1% |----|
   Apply H:                          2.003     1.795  13.1% |----|
    HMM T:                           0.208     0.208   1.5% ||
  diagonalize:                       0.923     0.923   6.7% |--|
  rotate_psi:                        0.326     0.326   2.4% ||
 Density:                            0.369     0.000   0.0% |
  Atomic density matrices:           0.021     0.021   0.2% |
  Mix:                               0.012     0.012   0.1% |
  Multipole moments:                 0.001     0.001   0.0% |
  Pseudo density:                    0.335     0.266   1.9% ||
   Symmetrize density:               0.069     0.069   0.5% |
 Hamiltonian:                        0.604     0.002   0.0% |
  Atomic:                            0.517     0.004   0.0% |
   XC Correction:                    0.513     0.513   3.7% ||
  Calculate atomic Hamiltonians:     0.004     0.004   0.0% |
  Communicate:                       0.000     0.000   0.0% |
  Poisson:                           0.001     0.001   0.0% |
  XC 3D grid:                        0.079     0.079   0.6% |
 Orthonormalize:                     0.082     0.010   0.1% |
  calc_s_matrix:                     0.025     0.025   0.2% |
  inverse-cholesky:                  0.011     0.011   0.1% |
  projections:                       0.026     0.026   0.2% |
  rotate_psi_s:                      0.009     0.009   0.1% |
Set symmetry:                        0.116     0.116   0.8% |
Other:                               0.336     0.336   2.4% ||
-----------------------------------------------------------
Total:                                        13.736 100.0%

Memory usage: 263.59 MiB
Date: Wed Feb 15 09:45:03 2023
