
  ___ ___ ___ _ _ _  
 |   |   |_  | | | | 
 | | | | | . | | | | 
 |__ |  _|___|_____|  22.8.0
 |___|_|             

User:   gotols@vera03-2
Date:   Tue Feb 14 16:26:18 2023
Arch:   x86_64
Pid:    74144
CWD:    /cephyr/users/gotols/Vera/TIF320-Computational-materials-and-molecular-physics-Assignments
Python: 3.10.4
gpaw:   /apps/Arch/software/GPAW/22.8.0-foss-2022a/lib/python3.10/site-packages/gpaw
_gpaw:  /apps/Arch/software/GPAW/22.8.0-foss-2022a/lib/python3.10/site-packages/
        _gpaw.cpython-310-x86_64-linux-gnu.so
ase:    /apps/Arch/software/ASE/3.22.1-foss-2022a/lib/python3.10/site-packages/ase (version 3.22.1)
numpy:  /apps/Arch/software/SciPy-bundle/2022.05-foss-2022a/lib/python3.10/site-packages/numpy (version 1.22.3)
scipy:  /apps/Arch/software/SciPy-bundle/2022.05-foss-2022a/lib/python3.10/site-packages/scipy (version 1.8.1)
libxc:  5.2.3
units:  Angstrom and eV
cores: 1
OpenMP: False
OMP_NUM_THREADS: 1

Input parameters:
  kpts: [12 12 12]
  mode: {ecut: 450.00000000000006,
         name: pw}
  xc: PBE

System changes: positions, numbers, cell, pbc, initial_charges, initial_magmoms 

Initialize ...

species:
  Pt:
    name: Platinum
    id: 5ed695806aff0c961dba1a84acd7f4b2
    Z: 78.0
    valence: 16
    core: 62
    charge: 0.0
    file: /apps/Common/software/GPAW-setups/0.9.20000/Pt.PBE.gz
    compensation charges: {type: gauss,
                           rc: 0.41,
                           lmax: 2}
    cutoffs: {filter: 2.26,
              core: 2.26}
    valence states:
      #              energy  rcut
      - 6s(1.00)    -5.628   1.307
      - 5p(6.00)   -56.051   1.371
      - 6p(0.00)    -0.845   1.371
      - 5d(9.00)    -6.153   1.307
      -  s          21.583   1.307
      -  d          21.058   1.307
  
    # Using partial waves for Pt as LCAO basis

Reference energy: -500375.362767  # eV

Spin-paired calculation

Convergence criteria:
 Maximum [total energy] change in last 3 cyles: 0.0005 eV / electron
 Maximum integral of absolute [dens]ity change: 0.0001 electrons / valence electron
 Maximum integral of absolute [eigenst]ate change: 4e-08 eV^2 / valence electron
 Maximum number of scf [iter]ations: 333
 (Square brackets indicate name in SCF output, whereas a 'c' in
 the SCF output indicates the quantity has converged.)

Symmetries present (total): 48

  ( 1  0  0)  ( 1  0  0)  ( 1  0  0)  ( 1  0  0)  ( 1  0 -1)  ( 1  0 -1)
  ( 1  0 -1)  ( 1 -1  0)  ( 0  1  0)  ( 0  0  1)  ( 1  0  0)  ( 1 -1  0)
  ( 1 -1  0)  ( 1  0 -1)  ( 0  0  1)  ( 0  1  0)  ( 1 -1  0)  ( 1  0  0)

  ( 1  0 -1)  ( 1  0 -1)  ( 1 -1  0)  ( 1 -1  0)  ( 1 -1  0)  ( 1 -1  0)
  ( 0  1 -1)  ( 0  0 -1)  ( 1  0  0)  ( 1  0 -1)  ( 0 -1  1)  ( 0 -1  0)
  ( 0  0 -1)  ( 0  1 -1)  ( 1  0 -1)  ( 1  0  0)  ( 0 -1  0)  ( 0 -1  1)

  ( 0  1  0)  ( 0  1  0)  ( 0  1  0)  ( 0  1  0)  ( 0  1 -1)  ( 0  1 -1)
  ( 1  0  0)  ( 0  1 -1)  ( 0  0  1)  (-1  1  0)  ( 1  0 -1)  ( 0  1  0)
  ( 0  0  1)  (-1  1  0)  ( 1  0  0)  ( 0  1 -1)  ( 0  0 -1)  (-1  1  0)

  ( 0  1 -1)  ( 0  1 -1)  ( 0  0  1)  ( 0  0  1)  ( 0  0  1)  ( 0  0  1)
  ( 0  0 -1)  (-1  1  0)  ( 1  0  0)  ( 0  1  0)  ( 0 -1  1)  (-1  0  1)
  ( 1  0 -1)  ( 0  1  0)  ( 0  1  0)  ( 1  0  0)  (-1  0  1)  ( 0 -1  1)

  ( 0  0 -1)  ( 0  0 -1)  ( 0  0 -1)  ( 0  0 -1)  ( 0 -1  1)  ( 0 -1  1)
  ( 1  0 -1)  ( 0  1 -1)  ( 0 -1  0)  (-1  0  0)  ( 1 -1  0)  ( 0  0  1)
  ( 0  1 -1)  ( 1  0 -1)  (-1  0  0)  ( 0 -1  0)  ( 0 -1  0)  (-1  0  1)

  ( 0 -1  1)  ( 0 -1  1)  ( 0 -1  0)  ( 0 -1  0)  ( 0 -1  0)  ( 0 -1  0)
  ( 0 -1  0)  (-1  0  1)  ( 1 -1  0)  ( 0  0 -1)  ( 0 -1  1)  (-1  0  0)
  ( 1 -1  0)  ( 0  0  1)  ( 0 -1  1)  (-1  0  0)  ( 1 -1  0)  ( 0  0 -1)

  (-1  1  0)  (-1  1  0)  (-1  1  0)  (-1  1  0)  (-1  0  1)  (-1  0  1)
  ( 0  1  0)  ( 0  1 -1)  (-1  0  1)  (-1  0  0)  ( 0  0  1)  ( 0 -1  1)
  ( 0  1 -1)  ( 0  1  0)  (-1  0  0)  (-1  0  1)  ( 0 -1  1)  ( 0  0  1)

  (-1  0  1)  (-1  0  1)  (-1  0  0)  (-1  0  0)  (-1  0  0)  (-1  0  0)
  (-1  1  0)  (-1  0  0)  ( 0  0 -1)  ( 0 -1  0)  (-1  1  0)  (-1  0  1)
  (-1  0  0)  (-1  1  0)  ( 0 -1  0)  ( 0  0 -1)  (-1  0  1)  (-1  1  0)
Note: your k-points are not as symmetric as your crystal!

1728 k-points: 12 x 12 x 12 Monkhorst-Pack grid
182 k-points in the irreducible part of the Brillouin zone
       k-points in crystal coordinates                weights
   0:     0.04166667    0.04166667   -0.04166667          6/1728
   1:     0.04166667    0.04166667    0.04166667          2/1728
   2:     0.12500000   -0.04166667   -0.04166667          6/1728
   3:     0.12500000    0.04166667   -0.12500000         12/1728
   4:     0.12500000    0.04166667   -0.04166667         12/1728
   5:     0.12500000    0.04166667    0.04166667          6/1728
   6:     0.12500000    0.12500000   -0.12500000          6/1728
   7:     0.12500000    0.12500000   -0.04166667          6/1728
   8:     0.12500000    0.12500000    0.04166667          6/1728
   9:     0.12500000    0.12500000    0.12500000          2/1728
          ...
 181:     0.45833333    0.45833333    0.45833333          2/1728

Wave functions: Plane wave expansion
  Cutoff energy: 450.000 eV
  Number of coefficients (min, max): 327, 346
  Pulay-stress correction: 0.000000 eV/Ang^3 (de/decut=0.000000)
  Using FFTW library
  ScaLapack parameters: grid=1x1, blocksize=None
  Wavefunction extrapolation:
    Improved wavefunction reuse through dual PAW basis 

Occupation numbers: Fermi-Dirac:
  width: 0.1000  # eV
 

Eigensolver
   Davidson(niter=2) 

Densities:
  Coarse grid: 14*14*14 grid
  Fine grid: 28*28*28 grid
  Total Charge: 0.000000 

Density mixing:
  Method: separate
  Backend: pulay
  Linear mixing parameter: 0.05
  old densities: 5
  Damping of long wavelength oscillations: 50 

Hamiltonian:
  XC and Coulomb potentials evaluated on a 28*28*28 grid
  Using the PBE Exchange-Correlation functional
  External potential:
    NoExternalPotential
 

XC parameters: PBE with 2 nearest neighbor stencil

Memory estimate:
  Process memory now: 256.22 MiB
  Calculator: 21.81 MiB
    Density: 1.11 MiB
      Arrays: 0.54 MiB
      Localized functions: 0.36 MiB
      Mixer: 0.21 MiB
    Hamiltonian: 0.36 MiB
      Arrays: 0.36 MiB
      XC: 0.00 MiB
      Poisson: 0.00 MiB
      vbar: 0.01 MiB
    Wavefunctions: 20.33 MiB
      Arrays psit_nG: 11.53 MiB
      Eigensolver: 0.11 MiB
      Projections: 0.60 MiB
      Projectors: 7.02 MiB
      PW-descriptor: 1.07 MiB

Total number of cores used: 1

Number of atoms: 1
Number of atomic orbitals: 12
Number of bands in calculation: 12
Number of valence electrons: 16
Bands to converge: occupied

... initialized

Initializing position-dependent things.

Density initialized from atomic densities
Creating initial wave functions:
  12 bands from LCAO basis set

                
                
                
       Pt       
                
                
                
                

Positions:
   0 Pt     0.000000    0.000000    0.000000    ( 0.0000,  0.0000,  0.0000)

Unit cell:
           periodic     x           y           z      points  spacing
  1. axis:    yes    0.000000    1.981800    1.981800    14     0.1635
  2. axis:    yes    1.981800    0.000000    1.981800    14     0.1635
  3. axis:    yes    1.981800    1.981800    0.000000    14     0.1635

  Lengths:   2.802688   2.802688   2.802688
  Angles:   60.000000  60.000000  60.000000

Effective grid spacing dv^(1/3) = 0.1784

     iter     time        total  log10-change:
                         energy  eigst   dens
iter:   1 16:26:22    -6.842790
iter:   2 16:26:23    -6.776455  -1.58  -1.45
iter:   3 16:26:24    -6.534805  -1.32  -1.47
iter:   4 16:26:25    -6.436248  -2.47  -1.80
iter:   5 16:26:26    -6.436453  -2.62  -2.18
iter:   6 16:26:27    -6.434759c -3.98  -2.61
iter:   7 16:26:28    -6.433785c -4.52  -2.88
iter:   8 16:26:29    -6.434006c -4.26  -3.17
iter:   9 16:26:30    -6.434010c -5.97  -4.06c
iter:  10 16:26:31    -6.434006c -6.52  -4.22c
iter:  11 16:26:32    -6.434009c -6.06  -3.91
iter:  12 16:26:33    -6.434008c -8.16c -4.73c

Converged after 12 iterations.

Dipole moment: (-0.000000, -0.000000, -0.000000) |e|*Ang

Energy contributions relative to reference atoms: (reference = -500375.362767)

Kinetic:         -7.291779
Potential:       +5.230028
External:        +0.000000
XC:              -3.807526
Entropy (-ST):   -0.056787
Local:           -0.536338
--------------------------
Free energy:     -6.462402
Extrapolated:    -6.434008

Showing only first 2 kpts
 Kpt  Band  Eigenvalues  Occupancy
  0     6      8.04813    2.00000
  0     7      9.81657    2.00000
  0     8      9.99065    2.00000
  0     9     27.02939    0.00000

  1     6      7.96027    2.00000
  1     7      9.94095    2.00000
  1     8      9.94095    2.00000
  1     9     26.76632    0.00000


Fermi level: 11.50684

No gap
Writing to Assignment 4/output/Pt_calculation_a=3.96.gpw (mode='')

Timing:                              incl.     excl.
-----------------------------------------------------------
Hamiltonian:                         0.052     0.000   0.0% |
 Atomic:                             0.045     0.000   0.0% |
  XC Correction:                     0.045     0.045   0.3% |
 Calculate atomic Hamiltonians:      0.000     0.000   0.0% |
 Communicate:                        0.000     0.000   0.0% |
 Initialize Hamiltonian:             0.000     0.000   0.0% |
 Poisson:                            0.000     0.000   0.0% |
 XC 3D grid:                         0.006     0.006   0.0% |
LCAO initialization:                 2.403     0.059   0.4% |
 LCAO eigensolver:                   0.305     0.004   0.0% |
  Calculate projections:             0.002     0.002   0.0% |
  DenseAtomicCorrection:             0.009     0.009   0.1% |
  Distribute overlap matrix:         0.002     0.002   0.0% |
  Orbital Layouts:                   0.026     0.026   0.2% |
  Potential matrix:                  0.230     0.230   1.5% ||
  Sum over cells:                    0.031     0.031   0.2% |
 LCAO to grid:                       1.496     1.496   9.7% |---|
 Set positions (LCAO WFS):           0.543     0.077   0.5% |
  Basic WFS set positions:           0.001     0.001   0.0% |
  Basis functions set positions:     0.000     0.000   0.0% |
  P tci:                             0.139     0.139   0.9% |
  ST tci:                            0.316     0.316   2.0% ||
  mktci:                             0.009     0.009   0.1% |
PWDescriptor:                        0.012     0.012   0.1% |
SCF-cycle:                          12.619     0.701   4.5% |-|
 Davidson:                          10.765     2.657  17.2% |------|
  Apply H:                           1.064     0.943   6.1% |-|
   HMM T:                            0.121     0.121   0.8% |
  Subspace diag:                     1.888     0.103   0.7% |
   calc_h_matrix:                    1.327     0.252   1.6% ||
    Apply H:                         1.075     0.946   6.1% |-|
     HMM T:                          0.129     0.129   0.8% |
   diagonalize:                      0.299     0.299   1.9% ||
   rotate_psi:                       0.158     0.158   1.0% |
  calc. matrices:                    3.615     1.499   9.7% |---|
   Apply H:                          2.115     1.875  12.1% |----|
    HMM T:                           0.240     0.240   1.6% ||
  diagonalize:                       1.306     1.306   8.4% |--|
  rotate_psi:                        0.236     0.236   1.5% ||
 Density:                            0.502     0.000   0.0% |
  Atomic density matrices:           0.029     0.029   0.2% |
  Mix:                               0.014     0.014   0.1% |
  Multipole moments:                 0.001     0.001   0.0% |
  Pseudo density:                    0.459     0.388   2.5% ||
   Symmetrize density:               0.071     0.071   0.5% |
 Hamiltonian:                        0.593     0.002   0.0% |
  Atomic:                            0.514     0.004   0.0% |
   XC Correction:                    0.509     0.509   3.3% ||
  Calculate atomic Hamiltonians:     0.004     0.004   0.0% |
  Communicate:                       0.000     0.000   0.0% |
  Poisson:                           0.001     0.001   0.0% |
  XC 3D grid:                        0.073     0.073   0.5% |
 Orthonormalize:                     0.058     0.008   0.1% |
  calc_s_matrix:                     0.016     0.016   0.1% |
  inverse-cholesky:                  0.009     0.009   0.1% |
  projections:                       0.020     0.020   0.1% |
  rotate_psi_s:                      0.006     0.006   0.0% |
Set symmetry:                        0.081     0.081   0.5% |
Other:                               0.302     0.302   2.0% ||
-----------------------------------------------------------
Total:                                        15.470 100.0%

Memory usage: 256.22 MiB
Date: Tue Feb 14 16:26:33 2023
