
  ___ ___ ___ _ _ _  
 |   |   |_  | | | | 
 | | | | | . | | | | 
 |__ |  _|___|_____|  22.8.0
 |___|_|             

User:   gotols@vera03-2
Date:   Tue Feb 14 16:26:50 2023
Arch:   x86_64
Pid:    74144
CWD:    /cephyr/users/gotols/Vera/TIF320-Computational-materials-and-molecular-physics-Assignments
Python: 3.10.4
gpaw:   /apps/Arch/software/GPAW/22.8.0-foss-2022a/lib/python3.10/site-packages/gpaw
_gpaw:  /apps/Arch/software/GPAW/22.8.0-foss-2022a/lib/python3.10/site-packages/
        _gpaw.cpython-310-x86_64-linux-gnu.so
ase:    /apps/Arch/software/ASE/3.22.1-foss-2022a/lib/python3.10/site-packages/ase (version 3.22.1)
numpy:  /apps/Arch/software/SciPy-bundle/2022.05-foss-2022a/lib/python3.10/site-packages/numpy (version 1.22.3)
scipy:  /apps/Arch/software/SciPy-bundle/2022.05-foss-2022a/lib/python3.10/site-packages/scipy (version 1.8.1)
libxc:  5.2.3
units:  Angstrom and eV
cores: 1
OpenMP: False
OMP_NUM_THREADS: 1

Input parameters:
  kpts: [12 12 12]
  mode: {ecut: 450.00000000000006,
         name: pw}
  xc: PBE

System changes: positions, numbers, cell, pbc, initial_charges, initial_magmoms 

Initialize ...

species:
  Rh:
    name: Rhodium
    id: 4e1d209aee696a641de1ffa1459b299f
    Z: 45.0
    valence: 15
    core: 30
    charge: 0.0
    file: /apps/Common/software/GPAW-setups/0.9.20000/Rh.PBE.gz
    compensation charges: {type: gauss,
                           rc: 0.38,
                           lmax: 2}
    cutoffs: {filter: 2.48,
              core: 2.35}
    valence states:
      #              energy  rcut
      - 5s(1.00)    -4.297   1.270
      - 4p(6.00)   -50.429   1.381
      - 5p(0.00)    -0.852   1.381
      - 4d(8.00)    -5.942   1.244
      -  s          22.915   1.270
      -  d          21.270   1.244
  
    # Using partial waves for Rh as LCAO basis

Reference energy: -130134.647000  # eV

Spin-paired calculation

Convergence criteria:
 Maximum [total energy] change in last 3 cyles: 0.0005 eV / electron
 Maximum integral of absolute [dens]ity change: 0.0001 electrons / valence electron
 Maximum integral of absolute [eigenst]ate change: 4e-08 eV^2 / valence electron
 Maximum number of scf [iter]ations: 333
 (Square brackets indicate name in SCF output, whereas a 'c' in
 the SCF output indicates the quantity has converged.)

Symmetries present (total): 48

  ( 1  0  0)  ( 1  0  0)  ( 1  0  0)  ( 1  0  0)  ( 1  0 -1)  ( 1  0 -1)
  ( 1  0 -1)  ( 1 -1  0)  ( 0  1  0)  ( 0  0  1)  ( 1  0  0)  ( 1 -1  0)
  ( 1 -1  0)  ( 1  0 -1)  ( 0  0  1)  ( 0  1  0)  ( 1 -1  0)  ( 1  0  0)

  ( 1  0 -1)  ( 1  0 -1)  ( 1 -1  0)  ( 1 -1  0)  ( 1 -1  0)  ( 1 -1  0)
  ( 0  1 -1)  ( 0  0 -1)  ( 1  0  0)  ( 1  0 -1)  ( 0 -1  1)  ( 0 -1  0)
  ( 0  0 -1)  ( 0  1 -1)  ( 1  0 -1)  ( 1  0  0)  ( 0 -1  0)  ( 0 -1  1)

  ( 0  1  0)  ( 0  1  0)  ( 0  1  0)  ( 0  1  0)  ( 0  1 -1)  ( 0  1 -1)
  ( 1  0  0)  ( 0  1 -1)  ( 0  0  1)  (-1  1  0)  ( 1  0 -1)  ( 0  1  0)
  ( 0  0  1)  (-1  1  0)  ( 1  0  0)  ( 0  1 -1)  ( 0  0 -1)  (-1  1  0)

  ( 0  1 -1)  ( 0  1 -1)  ( 0  0  1)  ( 0  0  1)  ( 0  0  1)  ( 0  0  1)
  ( 0  0 -1)  (-1  1  0)  ( 1  0  0)  ( 0  1  0)  ( 0 -1  1)  (-1  0  1)
  ( 1  0 -1)  ( 0  1  0)  ( 0  1  0)  ( 1  0  0)  (-1  0  1)  ( 0 -1  1)

  ( 0  0 -1)  ( 0  0 -1)  ( 0  0 -1)  ( 0  0 -1)  ( 0 -1  1)  ( 0 -1  1)
  ( 1  0 -1)  ( 0  1 -1)  ( 0 -1  0)  (-1  0  0)  ( 1 -1  0)  ( 0  0  1)
  ( 0  1 -1)  ( 1  0 -1)  (-1  0  0)  ( 0 -1  0)  ( 0 -1  0)  (-1  0  1)

  ( 0 -1  1)  ( 0 -1  1)  ( 0 -1  0)  ( 0 -1  0)  ( 0 -1  0)  ( 0 -1  0)
  ( 0 -1  0)  (-1  0  1)  ( 1 -1  0)  ( 0  0 -1)  ( 0 -1  1)  (-1  0  0)
  ( 1 -1  0)  ( 0  0  1)  ( 0 -1  1)  (-1  0  0)  ( 1 -1  0)  ( 0  0 -1)

  (-1  1  0)  (-1  1  0)  (-1  1  0)  (-1  1  0)  (-1  0  1)  (-1  0  1)
  ( 0  1  0)  ( 0  1 -1)  (-1  0  1)  (-1  0  0)  ( 0  0  1)  ( 0 -1  1)
  ( 0  1 -1)  ( 0  1  0)  (-1  0  0)  (-1  0  1)  ( 0 -1  1)  ( 0  0  1)

  (-1  0  1)  (-1  0  1)  (-1  0  0)  (-1  0  0)  (-1  0  0)  (-1  0  0)
  (-1  1  0)  (-1  0  0)  ( 0  0 -1)  ( 0 -1  0)  (-1  1  0)  (-1  0  1)
  (-1  0  0)  (-1  1  0)  ( 0 -1  0)  ( 0  0 -1)  (-1  0  1)  (-1  1  0)
Note: your k-points are not as symmetric as your crystal!

1728 k-points: 12 x 12 x 12 Monkhorst-Pack grid
182 k-points in the irreducible part of the Brillouin zone
       k-points in crystal coordinates                weights
   0:     0.04166667    0.04166667   -0.04166667          6/1728
   1:     0.04166667    0.04166667    0.04166667          2/1728
   2:     0.12500000   -0.04166667   -0.04166667          6/1728
   3:     0.12500000    0.04166667   -0.12500000         12/1728
   4:     0.12500000    0.04166667   -0.04166667         12/1728
   5:     0.12500000    0.04166667    0.04166667          6/1728
   6:     0.12500000    0.12500000   -0.12500000          6/1728
   7:     0.12500000    0.12500000   -0.04166667          6/1728
   8:     0.12500000    0.12500000    0.04166667          6/1728
   9:     0.12500000    0.12500000    0.12500000          2/1728
          ...
 181:     0.45833333    0.45833333    0.45833333          2/1728

Wave functions: Plane wave expansion
  Cutoff energy: 450.000 eV
  Number of coefficients (min, max): 283, 301
  Pulay-stress correction: 0.000000 eV/Ang^3 (de/decut=0.000000)
  Using FFTW library
  ScaLapack parameters: grid=1x1, blocksize=None
  Wavefunction extrapolation:
    Improved wavefunction reuse through dual PAW basis 

Occupation numbers: Fermi-Dirac:
  width: 0.1000  # eV
 

Eigensolver
   Davidson(niter=2) 

Densities:
  Coarse grid: 14*14*14 grid
  Fine grid: 28*28*28 grid
  Total Charge: 0.000000 

Density mixing:
  Method: separate
  Backend: pulay
  Linear mixing parameter: 0.05
  old densities: 5
  Damping of long wavelength oscillations: 50 

Hamiltonian:
  XC and Coulomb potentials evaluated on a 28*28*28 grid
  Using the PBE Exchange-Correlation functional
  External potential:
    NoExternalPotential
 

XC parameters: PBE with 2 nearest neighbor stencil

Memory estimate:
  Process memory now: 256.22 MiB
  Calculator: 19.17 MiB
    Density: 1.06 MiB
      Arrays: 0.54 MiB
      Localized functions: 0.31 MiB
      Mixer: 0.21 MiB
    Hamiltonian: 0.36 MiB
      Arrays: 0.36 MiB
      XC: 0.00 MiB
      Poisson: 0.00 MiB
      vbar: 0.01 MiB
    Wavefunctions: 17.74 MiB
      Arrays psit_nG: 10.03 MiB
      Eigensolver: 0.10 MiB
      Projections: 0.60 MiB
      Projectors: 6.07 MiB
      PW-descriptor: 0.94 MiB

Total number of cores used: 1

Number of atoms: 1
Number of atomic orbitals: 12
Number of bands in calculation: 12
Number of valence electrons: 15
Bands to converge: occupied

... initialized

Initializing position-dependent things.

Density initialized from atomic densities
Creating initial wave functions:
  12 bands from LCAO basis set

                
                
                
       Rh       
                
                
                
                

Positions:
   0 Rh     0.000000    0.000000    0.000000    ( 0.0000,  0.0000,  0.0000)

Unit cell:
           periodic     x           y           z      points  spacing
  1. axis:    yes    0.000000    1.886600    1.886600    14     0.1556
  2. axis:    yes    1.886600    0.000000    1.886600    14     0.1556
  3. axis:    yes    1.886600    1.886600    0.000000    14     0.1556

  Lengths:   2.668055   2.668055   2.668055
  Angles:   60.000000  60.000000  60.000000

Effective grid spacing dv^(1/3) = 0.1698

     iter     time        total  log10-change:
                         energy  eigst   dens
iter:   1 16:26:54    -7.865001
iter:   2 16:26:56    -7.751873  -1.80  -1.36
iter:   3 16:26:57    -7.389836  -1.20  -1.39
iter:   4 16:26:58    -7.301884  -2.76  -1.78
iter:   5 16:26:59    -7.279247  -2.28  -2.13
iter:   6 16:27:00    -7.276285  -3.67  -2.69
iter:   7 16:27:01    -7.275976c -4.46  -2.92
iter:   8 16:27:02    -7.275775c -4.24  -3.08
iter:   9 16:27:03    -7.275675c -5.01  -3.25
iter:  10 16:27:04    -7.275672c -6.46  -3.88
iter:  11 16:27:05    -7.275685c -5.94  -3.85
iter:  12 16:27:06    -7.275677c -6.48  -4.18c
iter:  13 16:27:07    -7.275677c -7.88c -5.23c

Converged after 13 iterations.

Dipole moment: (0.000000, 0.000000, 0.000000) |e|*Ang

Energy contributions relative to reference atoms: (reference = -130134.647000)

Kinetic:         -0.144030
Potential:       -1.816000
External:        +0.000000
XC:              -5.238694
Entropy (-ST):   -0.042773
Local:           -0.055566
--------------------------
Free energy:     -7.297064
Extrapolated:    -7.275677

Showing only first 2 kpts
 Kpt  Band  Eigenvalues  Occupancy
  0     5      9.20576    2.00000
  0     6      9.21189    2.00000
  0     7     11.08973    1.99998
  0     8     11.27591    1.99989

  1     5      9.11711    2.00000
  1     6      9.11711    2.00000
  1     7     11.22430    1.99994
  1     8     11.22430    1.99994


Fermi level: 12.26053

No gap
Writing to Assignment 4/output/Rh_calculation_a=3.77.gpw (mode='')

Timing:                              incl.     excl.
-----------------------------------------------------------
Hamiltonian:                         0.052     0.000   0.0% |
 Atomic:                             0.045     0.000   0.0% |
  XC Correction:                     0.044     0.044   0.3% |
 Calculate atomic Hamiltonians:      0.000     0.000   0.0% |
 Communicate:                        0.000     0.000   0.0% |
 Initialize Hamiltonian:             0.000     0.000   0.0% |
 Poisson:                            0.000     0.000   0.0% |
 XC 3D grid:                         0.007     0.007   0.0% |
LCAO initialization:                 2.865     0.058   0.3% |
 LCAO eigensolver:                   0.400     0.004   0.0% |
  Calculate projections:             0.003     0.003   0.0% |
  DenseAtomicCorrection:             0.009     0.009   0.1% |
  Distribute overlap matrix:         0.002     0.002   0.0% |
  Orbital Layouts:                   0.028     0.028   0.2% |
  Potential matrix:                  0.322     0.322   1.9% ||
  Sum over cells:                    0.032     0.032   0.2% |
 LCAO to grid:                       1.814     1.814  10.6% |---|
 Set positions (LCAO WFS):           0.593     0.087   0.5% |
  Basic WFS set positions:           0.001     0.001   0.0% |
  Basis functions set positions:     0.000     0.000   0.0% |
  P tci:                             0.131     0.131   0.8% |
  ST tci:                            0.365     0.365   2.1% ||
  mktci:                             0.009     0.009   0.1% |
PWDescriptor:                        0.013     0.013   0.1% |
SCF-cycle:                          13.742     0.882   5.2% |-|
 Davidson:                          11.658     2.847  16.7% |------|
  Apply H:                           1.158     1.026   6.0% |-|
   HMM T:                            0.132     0.132   0.8% |
  Subspace diag:                     2.045     0.113   0.7% |
   calc_h_matrix:                    1.435     0.271   1.6% ||
    Apply H:                         1.164     1.025   6.0% |-|
     HMM T:                          0.139     0.139   0.8% |
   diagonalize:                      0.325     0.325   1.9% ||
   rotate_psi:                       0.173     0.173   1.0% |
  calc. matrices:                    3.922     1.624   9.5% |---|
   Apply H:                          2.298     2.035  11.9% |----|
    HMM T:                           0.262     0.262   1.5% ||
  diagonalize:                       1.440     1.440   8.5% |--|
  rotate_psi:                        0.246     0.246   1.4% ||
 Density:                            0.546     0.000   0.0% |
  Atomic density matrices:           0.032     0.032   0.2% |
  Mix:                               0.013     0.013   0.1% |
  Multipole moments:                 0.001     0.001   0.0% |
  Pseudo density:                    0.500     0.421   2.5% ||
   Symmetrize density:               0.079     0.079   0.5% |
 Hamiltonian:                        0.598     0.002   0.0% |
  Atomic:                            0.509     0.005   0.0% |
   XC Correction:                    0.504     0.504   3.0% ||
  Calculate atomic Hamiltonians:     0.004     0.004   0.0% |
  Communicate:                       0.000     0.000   0.0% |
  Poisson:                           0.001     0.001   0.0% |
  XC 3D grid:                        0.081     0.081   0.5% |
 Orthonormalize:                     0.058     0.008   0.0% |
  calc_s_matrix:                     0.016     0.016   0.1% |
  inverse-cholesky:                  0.009     0.009   0.1% |
  projections:                       0.019     0.019   0.1% |
  rotate_psi_s:                      0.006     0.006   0.0% |
Set symmetry:                        0.086     0.086   0.5% |
Other:                               0.283     0.283   1.7% ||
-----------------------------------------------------------
Total:                                        17.041 100.0%

Memory usage: 256.22 MiB
Date: Tue Feb 14 16:27:07 2023
