
  ___ ___ ___ _ _ _  
 |   |   |_  | | | | 
 | | | | | . | | | | 
 |__ |  _|___|_____|  22.8.0
 |___|_|             

User:   gotols@vera03-2
Date:   Tue Feb 14 16:27:58 2023
Arch:   x86_64
Pid:    74144
CWD:    /cephyr/users/gotols/Vera/TIF320-Computational-materials-and-molecular-physics-Assignments
Python: 3.10.4
gpaw:   /apps/Arch/software/GPAW/22.8.0-foss-2022a/lib/python3.10/site-packages/gpaw
_gpaw:  /apps/Arch/software/GPAW/22.8.0-foss-2022a/lib/python3.10/site-packages/
        _gpaw.cpython-310-x86_64-linux-gnu.so
ase:    /apps/Arch/software/ASE/3.22.1-foss-2022a/lib/python3.10/site-packages/ase (version 3.22.1)
numpy:  /apps/Arch/software/SciPy-bundle/2022.05-foss-2022a/lib/python3.10/site-packages/numpy (version 1.22.3)
scipy:  /apps/Arch/software/SciPy-bundle/2022.05-foss-2022a/lib/python3.10/site-packages/scipy (version 1.8.1)
libxc:  5.2.3
units:  Angstrom and eV
cores: 1
OpenMP: False
OMP_NUM_THREADS: 1

Input parameters:
  kpts: [12 12 12]
  mode: {ecut: 450.00000000000006,
         name: pw}
  xc: PBE

System changes: positions, numbers, cell, pbc, initial_charges, initial_magmoms 

Initialize ...

species:
  Rh:
    name: Rhodium
    id: 4e1d209aee696a641de1ffa1459b299f
    Z: 45.0
    valence: 15
    core: 30
    charge: 0.0
    file: /apps/Common/software/GPAW-setups/0.9.20000/Rh.PBE.gz
    compensation charges: {type: gauss,
                           rc: 0.38,
                           lmax: 2}
    cutoffs: {filter: 2.48,
              core: 2.35}
    valence states:
      #              energy  rcut
      - 5s(1.00)    -4.297   1.270
      - 4p(6.00)   -50.429   1.381
      - 5p(0.00)    -0.852   1.381
      - 4d(8.00)    -5.942   1.244
      -  s          22.915   1.270
      -  d          21.270   1.244
  
    # Using partial waves for Rh as LCAO basis

Reference energy: -130134.647000  # eV

Spin-paired calculation

Convergence criteria:
 Maximum [total energy] change in last 3 cyles: 0.0005 eV / electron
 Maximum integral of absolute [dens]ity change: 0.0001 electrons / valence electron
 Maximum integral of absolute [eigenst]ate change: 4e-08 eV^2 / valence electron
 Maximum number of scf [iter]ations: 333
 (Square brackets indicate name in SCF output, whereas a 'c' in
 the SCF output indicates the quantity has converged.)

Symmetries present (total): 48

  ( 1  0  0)  ( 1  0  0)  ( 1  0  0)  ( 1  0  0)  ( 1  0 -1)  ( 1  0 -1)
  ( 1  0 -1)  ( 1 -1  0)  ( 0  1  0)  ( 0  0  1)  ( 1  0  0)  ( 1 -1  0)
  ( 1 -1  0)  ( 1  0 -1)  ( 0  0  1)  ( 0  1  0)  ( 1 -1  0)  ( 1  0  0)

  ( 1  0 -1)  ( 1  0 -1)  ( 1 -1  0)  ( 1 -1  0)  ( 1 -1  0)  ( 1 -1  0)
  ( 0  1 -1)  ( 0  0 -1)  ( 1  0  0)  ( 1  0 -1)  ( 0 -1  1)  ( 0 -1  0)
  ( 0  0 -1)  ( 0  1 -1)  ( 1  0 -1)  ( 1  0  0)  ( 0 -1  0)  ( 0 -1  1)

  ( 0  1  0)  ( 0  1  0)  ( 0  1  0)  ( 0  1  0)  ( 0  1 -1)  ( 0  1 -1)
  ( 1  0  0)  ( 0  1 -1)  ( 0  0  1)  (-1  1  0)  ( 1  0 -1)  ( 0  1  0)
  ( 0  0  1)  (-1  1  0)  ( 1  0  0)  ( 0  1 -1)  ( 0  0 -1)  (-1  1  0)

  ( 0  1 -1)  ( 0  1 -1)  ( 0  0  1)  ( 0  0  1)  ( 0  0  1)  ( 0  0  1)
  ( 0  0 -1)  (-1  1  0)  ( 1  0  0)  ( 0  1  0)  ( 0 -1  1)  (-1  0  1)
  ( 1  0 -1)  ( 0  1  0)  ( 0  1  0)  ( 1  0  0)  (-1  0  1)  ( 0 -1  1)

  ( 0  0 -1)  ( 0  0 -1)  ( 0  0 -1)  ( 0  0 -1)  ( 0 -1  1)  ( 0 -1  1)
  ( 1  0 -1)  ( 0  1 -1)  ( 0 -1  0)  (-1  0  0)  ( 1 -1  0)  ( 0  0  1)
  ( 0  1 -1)  ( 1  0 -1)  (-1  0  0)  ( 0 -1  0)  ( 0 -1  0)  (-1  0  1)

  ( 0 -1  1)  ( 0 -1  1)  ( 0 -1  0)  ( 0 -1  0)  ( 0 -1  0)  ( 0 -1  0)
  ( 0 -1  0)  (-1  0  1)  ( 1 -1  0)  ( 0  0 -1)  ( 0 -1  1)  (-1  0  0)
  ( 1 -1  0)  ( 0  0  1)  ( 0 -1  1)  (-1  0  0)  ( 1 -1  0)  ( 0  0 -1)

  (-1  1  0)  (-1  1  0)  (-1  1  0)  (-1  1  0)  (-1  0  1)  (-1  0  1)
  ( 0  1  0)  ( 0  1 -1)  (-1  0  1)  (-1  0  0)  ( 0  0  1)  ( 0 -1  1)
  ( 0  1 -1)  ( 0  1  0)  (-1  0  0)  (-1  0  1)  ( 0 -1  1)  ( 0  0  1)

  (-1  0  1)  (-1  0  1)  (-1  0  0)  (-1  0  0)  (-1  0  0)  (-1  0  0)
  (-1  1  0)  (-1  0  0)  ( 0  0 -1)  ( 0 -1  0)  (-1  1  0)  (-1  0  1)
  (-1  0  0)  (-1  1  0)  ( 0 -1  0)  ( 0  0 -1)  (-1  0  1)  (-1  1  0)
Note: your k-points are not as symmetric as your crystal!

1728 k-points: 12 x 12 x 12 Monkhorst-Pack grid
182 k-points in the irreducible part of the Brillouin zone
       k-points in crystal coordinates                weights
   0:     0.04166667    0.04166667   -0.04166667          6/1728
   1:     0.04166667    0.04166667    0.04166667          2/1728
   2:     0.12500000   -0.04166667   -0.04166667          6/1728
   3:     0.12500000    0.04166667   -0.12500000         12/1728
   4:     0.12500000    0.04166667   -0.04166667         12/1728
   5:     0.12500000    0.04166667    0.04166667          6/1728
   6:     0.12500000    0.12500000   -0.12500000          6/1728
   7:     0.12500000    0.12500000   -0.04166667          6/1728
   8:     0.12500000    0.12500000    0.04166667          6/1728
   9:     0.12500000    0.12500000    0.12500000          2/1728
          ...
 181:     0.45833333    0.45833333    0.45833333          2/1728

Wave functions: Plane wave expansion
  Cutoff energy: 450.000 eV
  Number of coefficients (min, max): 291, 312
  Pulay-stress correction: 0.000000 eV/Ang^3 (de/decut=0.000000)
  Using FFTW library
  ScaLapack parameters: grid=1x1, blocksize=None
  Wavefunction extrapolation:
    Improved wavefunction reuse through dual PAW basis 

Occupation numbers: Fermi-Dirac:
  width: 0.1000  # eV
 

Eigensolver
   Davidson(niter=2) 

Densities:
  Coarse grid: 14*14*14 grid
  Fine grid: 28*28*28 grid
  Total Charge: 0.000000 

Density mixing:
  Method: separate
  Backend: pulay
  Linear mixing parameter: 0.05
  old densities: 5
  Damping of long wavelength oscillations: 50 

Hamiltonian:
  XC and Coulomb potentials evaluated on a 28*28*28 grid
  Using the PBE Exchange-Correlation functional
  External potential:
    NoExternalPotential
 

XC parameters: PBE with 2 nearest neighbor stencil

Memory estimate:
  Process memory now: 259.45 MiB
  Calculator: 19.77 MiB
    Density: 1.07 MiB
      Arrays: 0.54 MiB
      Localized functions: 0.32 MiB
      Mixer: 0.21 MiB
    Hamiltonian: 0.36 MiB
      Arrays: 0.36 MiB
      XC: 0.00 MiB
      Poisson: 0.00 MiB
      vbar: 0.01 MiB
    Wavefunctions: 18.33 MiB
      Arrays psit_nG: 10.40 MiB
      Eigensolver: 0.10 MiB
      Projections: 0.60 MiB
      Projectors: 6.26 MiB
      PW-descriptor: 0.97 MiB

Total number of cores used: 1

Number of atoms: 1
Number of atomic orbitals: 12
Number of bands in calculation: 12
Number of valence electrons: 15
Bands to converge: occupied

... initialized

Initializing position-dependent things.

Density initialized from atomic densities
Creating initial wave functions:
  12 bands from LCAO basis set

                
                
                
       Rh       
                
                
                
                

Positions:
   0 Rh     0.000000    0.000000    0.000000    ( 0.0000,  0.0000,  0.0000)

Unit cell:
           periodic     x           y           z      points  spacing
  1. axis:    yes    0.000000    1.906600    1.906600    14     0.1573
  2. axis:    yes    1.906600    0.000000    1.906600    14     0.1573
  3. axis:    yes    1.906600    1.906600    0.000000    14     0.1573

  Lengths:   2.696340   2.696340   2.696340
  Angles:   60.000000  60.000000  60.000000

Effective grid spacing dv^(1/3) = 0.1716

     iter     time        total  log10-change:
                         energy  eigst   dens
iter:   1 16:28:02    -7.890722
iter:   2 16:28:03    -7.775263  -1.82  -1.35
iter:   3 16:28:04    -7.417611  -1.19  -1.39
iter:   4 16:28:06    -7.330543  -2.80  -1.77
iter:   5 16:28:07    -7.305907  -2.30  -2.10
iter:   6 16:28:08    -7.303169  -3.71  -2.69
iter:   7 16:28:09    -7.302837c -4.47  -2.92
iter:   8 16:28:10    -7.302612c -4.32  -3.09
iter:   9 16:28:11    -7.302544c -5.04  -3.25
iter:  10 16:28:12    -7.302541c -6.39  -3.90
iter:  11 16:28:13    -7.302553c -6.07  -3.88
iter:  12 16:28:14    -7.302545c -6.38  -4.13c
iter:  13 16:28:15    -7.302545c -7.81c -5.20c

Converged after 13 iterations.

Dipole moment: (0.000000, -0.000000, 0.000000) |e|*Ang

Energy contributions relative to reference atoms: (reference = -130134.647000)

Kinetic:         -3.177999
Potential:       +0.694940
External:        +0.000000
XC:              -4.745765
Entropy (-ST):   -0.045358
Local:           -0.051042
--------------------------
Free energy:     -7.325224
Extrapolated:    -7.302545

Showing only first 2 kpts
 Kpt  Band  Eigenvalues  Occupancy
  0     5      8.76703    2.00000
  0     6      8.77329    2.00000
  0     7     10.56056    1.99997
  0     8     10.73632    1.99983

  1     5      8.68239    2.00000
  1     6      8.68239    2.00000
  1     7     10.68728    1.99990
  1     8     10.68728    1.99990


Fermi level: 11.67421

No gap
Writing to Assignment 4/output/Rh_calculation_a=3.81.gpw (mode='')

Timing:                              incl.     excl.
-----------------------------------------------------------
Hamiltonian:                         0.048     0.000   0.0% |
 Atomic:                             0.040     0.000   0.0% |
  XC Correction:                     0.039     0.039   0.2% |
 Calculate atomic Hamiltonians:      0.000     0.000   0.0% |
 Communicate:                        0.000     0.000   0.0% |
 Initialize Hamiltonian:             0.000     0.000   0.0% |
 Poisson:                            0.000     0.000   0.0% |
 XC 3D grid:                         0.007     0.007   0.0% |
LCAO initialization:                 2.673     0.056   0.3% |
 LCAO eigensolver:                   0.373     0.004   0.0% |
  Calculate projections:             0.002     0.002   0.0% |
  DenseAtomicCorrection:             0.009     0.009   0.1% |
  Distribute overlap matrix:         0.002     0.002   0.0% |
  Orbital Layouts:                   0.027     0.027   0.2% |
  Potential matrix:                  0.296     0.296   1.8% ||
  Sum over cells:                    0.032     0.032   0.2% |
 LCAO to grid:                       1.701     1.701  10.2% |---|
 Set positions (LCAO WFS):           0.542     0.087   0.5% |
  Basic WFS set positions:           0.001     0.001   0.0% |
  Basis functions set positions:     0.000     0.000   0.0% |
  P tci:                             0.127     0.127   0.8% |
  ST tci:                            0.318     0.318   1.9% ||
  mktci:                             0.009     0.009   0.1% |
PWDescriptor:                        0.013     0.013   0.1% |
SCF-cycle:                          13.642     0.899   5.4% |-|
 Davidson:                          11.564     2.833  16.9% |------|
  Apply H:                           1.147     1.017   6.1% |-|
   HMM T:                            0.130     0.130   0.8% |
  Subspace diag:                     2.034     0.113   0.7% |
   calc_h_matrix:                    1.431     0.270   1.6% ||
    Apply H:                         1.161     1.023   6.1% |-|
     HMM T:                          0.138     0.138   0.8% |
   diagonalize:                      0.323     0.323   1.9% ||
   rotate_psi:                       0.167     0.167   1.0% |
  calc. matrices:                    3.887     1.610   9.6% |---|
   Apply H:                          2.277     2.019  12.1% |----|
    HMM T:                           0.258     0.258   1.5% ||
  diagonalize:                       1.422     1.422   8.5% |--|
  rotate_psi:                        0.243     0.243   1.5% ||
 Density:                            0.547     0.000   0.0% |
  Atomic density matrices:           0.031     0.031   0.2% |
  Mix:                               0.014     0.014   0.1% |
  Multipole moments:                 0.001     0.001   0.0% |
  Pseudo density:                    0.500     0.422   2.5% ||
   Symmetrize density:               0.078     0.078   0.5% |
 Hamiltonian:                        0.575     0.002   0.0% |
  Atomic:                            0.488     0.005   0.0% |
   XC Correction:                    0.484     0.484   2.9% ||
  Calculate atomic Hamiltonians:     0.004     0.004   0.0% |
  Communicate:                       0.000     0.000   0.0% |
  Poisson:                           0.001     0.001   0.0% |
  XC 3D grid:                        0.080     0.080   0.5% |
 Orthonormalize:                     0.056     0.008   0.0% |
  calc_s_matrix:                     0.015     0.015   0.1% |
  inverse-cholesky:                  0.009     0.009   0.1% |
  projections:                       0.019     0.019   0.1% |
  rotate_psi_s:                      0.006     0.006   0.0% |
Set symmetry:                        0.081     0.081   0.5% |
Other:                               0.282     0.282   1.7% ||
-----------------------------------------------------------
Total:                                        16.739 100.0%

Memory usage: 259.45 MiB
Date: Tue Feb 14 16:28:15 2023
