
  ___ ___ ___ _ _ _  
 |   |   |_  | | | | 
 | | | | | . | | | | 
 |__ |  _|___|_____|  22.8.0
 |___|_|             

User:   gotols@vera33-2
Date:   Wed Feb 15 09:50:17 2023
Arch:   x86_64
Pid:    3133821
CWD:    /cephyr/users/gotols/Vera/TIF320-Computational-materials-and-molecular-physics-Assignments
Python: 3.10.4
gpaw:   /apps/Arch/software/GPAW/22.8.0-foss-2022a/lib/python3.10/site-packages/gpaw
_gpaw:  /apps/Arch/software/GPAW/22.8.0-foss-2022a/lib/python3.10/site-packages/
        _gpaw.cpython-310-x86_64-linux-gnu.so
ase:    /apps/Arch/software/ASE/3.22.1-foss-2022a/lib/python3.10/site-packages/ase (version 3.22.1)
numpy:  /apps/Arch/software/SciPy-bundle/2022.05-foss-2022a/lib/python3.10/site-packages/numpy (version 1.22.3)
scipy:  /apps/Arch/software/SciPy-bundle/2022.05-foss-2022a/lib/python3.10/site-packages/scipy (version 1.8.1)
libxc:  5.2.3
units:  Angstrom and eV
cores: 1
OpenMP: False
OMP_NUM_THREADS: 1

Input parameters:
  kpts: [12 12 12]
  mode: {ecut: 450.00000000000006,
         name: pw}
  xc: PBE

System changes: positions, numbers, cell, pbc, initial_charges, initial_magmoms 

Initialize ...

species:
  Rh:
    name: Rhodium
    id: 4e1d209aee696a641de1ffa1459b299f
    Z: 45.0
    valence: 15
    core: 30
    charge: 0.0
    file: /apps/Common/software/GPAW-setups/0.9.20000/Rh.PBE.gz
    compensation charges: {type: gauss,
                           rc: 0.38,
                           lmax: 2}
    cutoffs: {filter: 2.48,
              core: 2.35}
    valence states:
      #              energy  rcut
      - 5s(1.00)    -4.297   1.270
      - 4p(6.00)   -50.429   1.381
      - 5p(0.00)    -0.852   1.381
      - 4d(8.00)    -5.942   1.244
      -  s          22.915   1.270
      -  d          21.270   1.244
  
    # Using partial waves for Rh as LCAO basis

Reference energy: -130134.647000  # eV

Spin-paired calculation

Convergence criteria:
 Maximum [total energy] change in last 3 cyles: 0.0005 eV / electron
 Maximum integral of absolute [dens]ity change: 0.0001 electrons / valence electron
 Maximum integral of absolute [eigenst]ate change: 4e-08 eV^2 / valence electron
 Maximum number of scf [iter]ations: 333
 (Square brackets indicate name in SCF output, whereas a 'c' in
 the SCF output indicates the quantity has converged.)

Symmetries present (total): 48

  ( 1  0  0)  ( 1  0  0)  ( 1  0  0)  ( 1  0  0)  ( 1  0 -1)  ( 1  0 -1)
  ( 1  0 -1)  ( 1 -1  0)  ( 0  1  0)  ( 0  0  1)  ( 1  0  0)  ( 1 -1  0)
  ( 1 -1  0)  ( 1  0 -1)  ( 0  0  1)  ( 0  1  0)  ( 1 -1  0)  ( 1  0  0)

  ( 1  0 -1)  ( 1  0 -1)  ( 1 -1  0)  ( 1 -1  0)  ( 1 -1  0)  ( 1 -1  0)
  ( 0  1 -1)  ( 0  0 -1)  ( 1  0  0)  ( 1  0 -1)  ( 0 -1  1)  ( 0 -1  0)
  ( 0  0 -1)  ( 0  1 -1)  ( 1  0 -1)  ( 1  0  0)  ( 0 -1  0)  ( 0 -1  1)

  ( 0  1  0)  ( 0  1  0)  ( 0  1  0)  ( 0  1  0)  ( 0  1 -1)  ( 0  1 -1)
  ( 1  0  0)  ( 0  1 -1)  ( 0  0  1)  (-1  1  0)  ( 1  0 -1)  ( 0  1  0)
  ( 0  0  1)  (-1  1  0)  ( 1  0  0)  ( 0  1 -1)  ( 0  0 -1)  (-1  1  0)

  ( 0  1 -1)  ( 0  1 -1)  ( 0  0  1)  ( 0  0  1)  ( 0  0  1)  ( 0  0  1)
  ( 0  0 -1)  (-1  1  0)  ( 1  0  0)  ( 0  1  0)  ( 0 -1  1)  (-1  0  1)
  ( 1  0 -1)  ( 0  1  0)  ( 0  1  0)  ( 1  0  0)  (-1  0  1)  ( 0 -1  1)

  ( 0  0 -1)  ( 0  0 -1)  ( 0  0 -1)  ( 0  0 -1)  ( 0 -1  1)  ( 0 -1  1)
  ( 1  0 -1)  ( 0  1 -1)  ( 0 -1  0)  (-1  0  0)  ( 1 -1  0)  ( 0  0  1)
  ( 0  1 -1)  ( 1  0 -1)  (-1  0  0)  ( 0 -1  0)  ( 0 -1  0)  (-1  0  1)

  ( 0 -1  1)  ( 0 -1  1)  ( 0 -1  0)  ( 0 -1  0)  ( 0 -1  0)  ( 0 -1  0)
  ( 0 -1  0)  (-1  0  1)  ( 1 -1  0)  ( 0  0 -1)  ( 0 -1  1)  (-1  0  0)
  ( 1 -1  0)  ( 0  0  1)  ( 0 -1  1)  (-1  0  0)  ( 1 -1  0)  ( 0  0 -1)

  (-1  1  0)  (-1  1  0)  (-1  1  0)  (-1  1  0)  (-1  0  1)  (-1  0  1)
  ( 0  1  0)  ( 0  1 -1)  (-1  0  1)  (-1  0  0)  ( 0  0  1)  ( 0 -1  1)
  ( 0  1 -1)  ( 0  1  0)  (-1  0  0)  (-1  0  1)  ( 0 -1  1)  ( 0  0  1)

  (-1  0  1)  (-1  0  1)  (-1  0  0)  (-1  0  0)  (-1  0  0)  (-1  0  0)
  (-1  1  0)  (-1  0  0)  ( 0  0 -1)  ( 0 -1  0)  (-1  1  0)  (-1  0  1)
  (-1  0  0)  (-1  1  0)  ( 0 -1  0)  ( 0  0 -1)  (-1  0  1)  (-1  1  0)
Note: your k-points are not as symmetric as your crystal!

1728 k-points: 12 x 12 x 12 Monkhorst-Pack grid
182 k-points in the irreducible part of the Brillouin zone
       k-points in crystal coordinates                weights
   0:     0.04166667    0.04166667   -0.04166667          6/1728
   1:     0.04166667    0.04166667    0.04166667          2/1728
   2:     0.12500000   -0.04166667   -0.04166667          6/1728
   3:     0.12500000    0.04166667   -0.12500000         12/1728
   4:     0.12500000    0.04166667   -0.04166667         12/1728
   5:     0.12500000    0.04166667    0.04166667          6/1728
   6:     0.12500000    0.12500000   -0.12500000          6/1728
   7:     0.12500000    0.12500000   -0.04166667          6/1728
   8:     0.12500000    0.12500000    0.04166667          6/1728
   9:     0.12500000    0.12500000    0.12500000          2/1728
          ...
 181:     0.45833333    0.45833333    0.45833333          2/1728

Wave functions: Plane wave expansion
  Cutoff energy: 450.000 eV
  Number of coefficients (min, max): 299, 319
  Pulay-stress correction: 0.000000 eV/Ang^3 (de/decut=0.000000)
  Using FFTW library
  ScaLapack parameters: grid=1x1, blocksize=None
  Wavefunction extrapolation:
    Improved wavefunction reuse through dual PAW basis 

Occupation numbers: Fermi-Dirac:
  width: 0.1000  # eV
 

Eigensolver
   Davidson(niter=2) 

Densities:
  Coarse grid: 14*14*14 grid
  Fine grid: 28*28*28 grid
  Total Charge: 0.000000 

Density mixing:
  Method: separate
  Backend: pulay
  Linear mixing parameter: 0.05
  old densities: 5
  Damping of long wavelength oscillations: 50 

Hamiltonian:
  XC and Coulomb potentials evaluated on a 28*28*28 grid
  Using the PBE Exchange-Correlation functional
  External potential:
    NoExternalPotential
 

XC parameters: PBE with 2 nearest neighbor stencil

Memory estimate:
  Process memory now: 267.71 MiB
  Calculator: 20.14 MiB
    Density: 1.08 MiB
      Arrays: 0.54 MiB
      Localized functions: 0.32 MiB
      Mixer: 0.21 MiB
    Hamiltonian: 0.36 MiB
      Arrays: 0.36 MiB
      XC: 0.00 MiB
      Poisson: 0.00 MiB
      vbar: 0.01 MiB
    Wavefunctions: 18.70 MiB
      Arrays psit_nG: 10.63 MiB
      Eigensolver: 0.11 MiB
      Projections: 0.60 MiB
      Projectors: 6.38 MiB
      PW-descriptor: 0.99 MiB

Total number of cores used: 1

Number of atoms: 1
Number of atomic orbitals: 12
Number of bands in calculation: 12
Number of valence electrons: 15
Bands to converge: occupied

... initialized

Initializing position-dependent things.

Density initialized from atomic densities
Creating initial wave functions:
  12 bands from LCAO basis set

                
                
                
       Rh       
                
                
                
                

Positions:
   0 Rh     0.000000    0.000000    0.000000    ( 0.0000,  0.0000,  0.0000)

Unit cell:
           periodic     x           y           z      points  spacing
  1. axis:    yes    0.000000    1.918500    1.918500    14     0.1582
  2. axis:    yes    1.918500    0.000000    1.918500    14     0.1582
  3. axis:    yes    1.918500    1.918500    0.000000    14     0.1582

  Lengths:   2.713169   2.713169   2.713169
  Angles:   60.000000  60.000000  60.000000

Effective grid spacing dv^(1/3) = 0.1727

     iter     time        total  log10-change:
                         energy  eigst   dens
iter:   1 09:50:21    -7.893805
iter:   2 09:50:23    -7.777036  -1.84  -1.35
iter:   3 09:50:24    -7.421858  -1.18  -1.39
iter:   4 09:50:26    -7.336092  -2.83  -1.77
iter:   5 09:50:27    -7.310397  -2.31  -2.09
iter:   6 09:50:29    -7.307667  -3.74  -2.69
iter:   7 09:50:30    -7.307323c -4.48  -2.92
iter:   8 09:50:31    -7.307079c -4.37  -3.10
iter:   9 09:50:32    -7.307035c -5.06  -3.26
iter:  10 09:50:34    -7.307032c -6.36  -3.90
iter:  11 09:50:35    -7.307042c -6.14  -3.89
iter:  12 09:50:36    -7.307035c -6.37  -4.13c
iter:  13 09:50:38    -7.307035c -7.75c -5.15c

Converged after 13 iterations.

Dipole moment: (-0.000000, -0.000000, -0.000000) |e|*Ang

Energy contributions relative to reference atoms: (reference = -130134.647000)

Kinetic:         -4.805024
Potential:       +2.042271
External:        +0.000000
XC:              -4.471410
Entropy (-ST):   -0.046965
Local:           -0.049390
--------------------------
Free energy:     -7.330517
Extrapolated:    -7.307035

Showing only first 2 kpts
 Kpt  Band  Eigenvalues  Occupancy
  0     5      8.51393    2.00000
  0     6      8.51992    2.00000
  0     7     10.25594    1.99996
  0     8     10.42569    1.99978

  1     5      8.43158    2.00000
  1     6      8.43158    2.00000
  1     7     10.37792    1.99986
  1     8     10.37792    1.99986


Fermi level: 11.33716

No gap
Writing to Assignment 4/output/Rh_calculation_a=3.84.gpw (mode='')

Timing:                              incl.     excl.
-----------------------------------------------------------
Hamiltonian:                         0.058     0.000   0.0% |
 Atomic:                             0.050     0.000   0.0% |
  XC Correction:                     0.050     0.050   0.2% |
 Calculate atomic Hamiltonians:      0.000     0.000   0.0% |
 Communicate:                        0.000     0.000   0.0% |
 Initialize Hamiltonian:             0.000     0.000   0.0% |
 Poisson:                            0.000     0.000   0.0% |
 XC 3D grid:                         0.007     0.007   0.0% |
LCAO initialization:                 2.875     0.056   0.3% |
 LCAO eigensolver:                   0.400     0.005   0.0% |
  Calculate projections:             0.003     0.003   0.0% |
  DenseAtomicCorrection:             0.011     0.011   0.1% |
  Distribute overlap matrix:         0.003     0.003   0.0% |
  Orbital Layouts:                   0.033     0.033   0.2% |
  Potential matrix:                  0.308     0.308   1.5% ||
  Sum over cells:                    0.038     0.038   0.2% |
 LCAO to grid:                       1.859     1.859   9.0% |---|
 Set positions (LCAO WFS):           0.560     0.094   0.5% |
  Basic WFS set positions:           0.001     0.001   0.0% |
  Basis functions set positions:     0.000     0.000   0.0% |
  P tci:                             0.138     0.138   0.7% |
  ST tci:                            0.318     0.318   1.5% ||
  mktci:                             0.009     0.009   0.0% |
PWDescriptor:                        0.018     0.018   0.1% |
SCF-cycle:                          17.320     0.896   4.3% |-|
 Davidson:                          15.078     3.571  17.3% |------|
  Apply H:                           1.453     1.285   6.2% |-|
   HMM T:                            0.169     0.169   0.8% |
  Subspace diag:                     2.730     0.145   0.7% |
   calc_h_matrix:                    1.838     0.378   1.8% ||
    Apply H:                         1.460     1.283   6.2% |-|
     HMM T:                          0.177     0.177   0.9% |
   diagonalize:                      0.414     0.414   2.0% ||
   rotate_psi:                       0.333     0.333   1.6% ||
  calc. matrices:                    4.952     2.069  10.0% |---|
   Apply H:                          2.883     2.548  12.3% |----|
    HMM T:                           0.335     0.335   1.6% ||
  diagonalize:                       2.002     2.002   9.7% |---|
  rotate_psi:                        0.370     0.370   1.8% ||
 Density:                            0.551     0.000   0.0% |
  Atomic density matrices:           0.031     0.031   0.1% |
  Mix:                               0.017     0.017   0.1% |
  Multipole moments:                 0.001     0.001   0.0% |
  Pseudo density:                    0.502     0.426   2.1% ||
   Symmetrize density:               0.077     0.077   0.4% |
 Hamiltonian:                        0.710     0.003   0.0% |
  Atomic:                            0.612     0.005   0.0% |
   XC Correction:                    0.607     0.607   2.9% ||
  Calculate atomic Hamiltonians:     0.005     0.005   0.0% |
  Communicate:                       0.000     0.000   0.0% |
  Poisson:                           0.001     0.001   0.0% |
  XC 3D grid:                        0.089     0.089   0.4% |
 Orthonormalize:                     0.084     0.011   0.1% |
  calc_s_matrix:                     0.020     0.020   0.1% |
  inverse-cholesky:                  0.011     0.011   0.1% |
  projections:                       0.028     0.028   0.1% |
  rotate_psi_s:                      0.015     0.015   0.1% |
Set symmetry:                        0.106     0.106   0.5% |
Other:                               0.312     0.312   1.5% ||
-----------------------------------------------------------
Total:                                        20.689 100.0%

Memory usage: 267.71 MiB
Date: Wed Feb 15 09:50:38 2023
