
  ___ ___ ___ _ _ _  
 |   |   |_  | | | | 
 | | | | | . | | | | 
 |__ |  _|___|_____|  22.8.0
 |___|_|             

User:   gotols@vera03-2
Date:   Tue Feb 14 16:28:32 2023
Arch:   x86_64
Pid:    74144
CWD:    /cephyr/users/gotols/Vera/TIF320-Computational-materials-and-molecular-physics-Assignments
Python: 3.10.4
gpaw:   /apps/Arch/software/GPAW/22.8.0-foss-2022a/lib/python3.10/site-packages/gpaw
_gpaw:  /apps/Arch/software/GPAW/22.8.0-foss-2022a/lib/python3.10/site-packages/
        _gpaw.cpython-310-x86_64-linux-gnu.so
ase:    /apps/Arch/software/ASE/3.22.1-foss-2022a/lib/python3.10/site-packages/ase (version 3.22.1)
numpy:  /apps/Arch/software/SciPy-bundle/2022.05-foss-2022a/lib/python3.10/site-packages/numpy (version 1.22.3)
scipy:  /apps/Arch/software/SciPy-bundle/2022.05-foss-2022a/lib/python3.10/site-packages/scipy (version 1.8.1)
libxc:  5.2.3
units:  Angstrom and eV
cores: 1
OpenMP: False
OMP_NUM_THREADS: 1

Input parameters:
  kpts: [12 12 12]
  mode: {ecut: 450.00000000000006,
         name: pw}
  xc: PBE

System changes: positions, numbers, cell, pbc, initial_charges, initial_magmoms 

Initialize ...

species:
  Rh:
    name: Rhodium
    id: 4e1d209aee696a641de1ffa1459b299f
    Z: 45.0
    valence: 15
    core: 30
    charge: 0.0
    file: /apps/Common/software/GPAW-setups/0.9.20000/Rh.PBE.gz
    compensation charges: {type: gauss,
                           rc: 0.38,
                           lmax: 2}
    cutoffs: {filter: 2.48,
              core: 2.35}
    valence states:
      #              energy  rcut
      - 5s(1.00)    -4.297   1.270
      - 4p(6.00)   -50.429   1.381
      - 5p(0.00)    -0.852   1.381
      - 4d(8.00)    -5.942   1.244
      -  s          22.915   1.270
      -  d          21.270   1.244
  
    # Using partial waves for Rh as LCAO basis

Reference energy: -130134.647000  # eV

Spin-paired calculation

Convergence criteria:
 Maximum [total energy] change in last 3 cyles: 0.0005 eV / electron
 Maximum integral of absolute [dens]ity change: 0.0001 electrons / valence electron
 Maximum integral of absolute [eigenst]ate change: 4e-08 eV^2 / valence electron
 Maximum number of scf [iter]ations: 333
 (Square brackets indicate name in SCF output, whereas a 'c' in
 the SCF output indicates the quantity has converged.)

Symmetries present (total): 48

  ( 1  0  0)  ( 1  0  0)  ( 1  0  0)  ( 1  0  0)  ( 1  0 -1)  ( 1  0 -1)
  ( 1  0 -1)  ( 1 -1  0)  ( 0  1  0)  ( 0  0  1)  ( 1  0  0)  ( 1 -1  0)
  ( 1 -1  0)  ( 1  0 -1)  ( 0  0  1)  ( 0  1  0)  ( 1 -1  0)  ( 1  0  0)

  ( 1  0 -1)  ( 1  0 -1)  ( 1 -1  0)  ( 1 -1  0)  ( 1 -1  0)  ( 1 -1  0)
  ( 0  1 -1)  ( 0  0 -1)  ( 1  0  0)  ( 1  0 -1)  ( 0 -1  1)  ( 0 -1  0)
  ( 0  0 -1)  ( 0  1 -1)  ( 1  0 -1)  ( 1  0  0)  ( 0 -1  0)  ( 0 -1  1)

  ( 0  1  0)  ( 0  1  0)  ( 0  1  0)  ( 0  1  0)  ( 0  1 -1)  ( 0  1 -1)
  ( 1  0  0)  ( 0  1 -1)  ( 0  0  1)  (-1  1  0)  ( 1  0 -1)  ( 0  1  0)
  ( 0  0  1)  (-1  1  0)  ( 1  0  0)  ( 0  1 -1)  ( 0  0 -1)  (-1  1  0)

  ( 0  1 -1)  ( 0  1 -1)  ( 0  0  1)  ( 0  0  1)  ( 0  0  1)  ( 0  0  1)
  ( 0  0 -1)  (-1  1  0)  ( 1  0  0)  ( 0  1  0)  ( 0 -1  1)  (-1  0  1)
  ( 1  0 -1)  ( 0  1  0)  ( 0  1  0)  ( 1  0  0)  (-1  0  1)  ( 0 -1  1)

  ( 0  0 -1)  ( 0  0 -1)  ( 0  0 -1)  ( 0  0 -1)  ( 0 -1  1)  ( 0 -1  1)
  ( 1  0 -1)  ( 0  1 -1)  ( 0 -1  0)  (-1  0  0)  ( 1 -1  0)  ( 0  0  1)
  ( 0  1 -1)  ( 1  0 -1)  (-1  0  0)  ( 0 -1  0)  ( 0 -1  0)  (-1  0  1)

  ( 0 -1  1)  ( 0 -1  1)  ( 0 -1  0)  ( 0 -1  0)  ( 0 -1  0)  ( 0 -1  0)
  ( 0 -1  0)  (-1  0  1)  ( 1 -1  0)  ( 0  0 -1)  ( 0 -1  1)  (-1  0  0)
  ( 1 -1  0)  ( 0  0  1)  ( 0 -1  1)  (-1  0  0)  ( 1 -1  0)  ( 0  0 -1)

  (-1  1  0)  (-1  1  0)  (-1  1  0)  (-1  1  0)  (-1  0  1)  (-1  0  1)
  ( 0  1  0)  ( 0  1 -1)  (-1  0  1)  (-1  0  0)  ( 0  0  1)  ( 0 -1  1)
  ( 0  1 -1)  ( 0  1  0)  (-1  0  0)  (-1  0  1)  ( 0 -1  1)  ( 0  0  1)

  (-1  0  1)  (-1  0  1)  (-1  0  0)  (-1  0  0)  (-1  0  0)  (-1  0  0)
  (-1  1  0)  (-1  0  0)  ( 0  0 -1)  ( 0 -1  0)  (-1  1  0)  (-1  0  1)
  (-1  0  0)  (-1  1  0)  ( 0 -1  0)  ( 0  0 -1)  (-1  0  1)  (-1  1  0)
Note: your k-points are not as symmetric as your crystal!

1728 k-points: 12 x 12 x 12 Monkhorst-Pack grid
182 k-points in the irreducible part of the Brillouin zone
       k-points in crystal coordinates                weights
   0:     0.04166667    0.04166667   -0.04166667          6/1728
   1:     0.04166667    0.04166667    0.04166667          2/1728
   2:     0.12500000   -0.04166667   -0.04166667          6/1728
   3:     0.12500000    0.04166667   -0.12500000         12/1728
   4:     0.12500000    0.04166667   -0.04166667         12/1728
   5:     0.12500000    0.04166667    0.04166667          6/1728
   6:     0.12500000    0.12500000   -0.12500000          6/1728
   7:     0.12500000    0.12500000   -0.04166667          6/1728
   8:     0.12500000    0.12500000    0.04166667          6/1728
   9:     0.12500000    0.12500000    0.12500000          2/1728
          ...
 181:     0.45833333    0.45833333    0.45833333          2/1728

Wave functions: Plane wave expansion
  Cutoff energy: 450.000 eV
  Number of coefficients (min, max): 299, 319
  Pulay-stress correction: 0.000000 eV/Ang^3 (de/decut=0.000000)
  Using FFTW library
  ScaLapack parameters: grid=1x1, blocksize=None
  Wavefunction extrapolation:
    Improved wavefunction reuse through dual PAW basis 

Occupation numbers: Fermi-Dirac:
  width: 0.1000  # eV
 

Eigensolver
   Davidson(niter=2) 

Densities:
  Coarse grid: 14*14*14 grid
  Fine grid: 28*28*28 grid
  Total Charge: 0.000000 

Density mixing:
  Method: separate
  Backend: pulay
  Linear mixing parameter: 0.05
  old densities: 5
  Damping of long wavelength oscillations: 50 

Hamiltonian:
  XC and Coulomb potentials evaluated on a 28*28*28 grid
  Using the PBE Exchange-Correlation functional
  External potential:
    NoExternalPotential
 

XC parameters: PBE with 2 nearest neighbor stencil

Memory estimate:
  Process memory now: 259.60 MiB
  Calculator: 20.13 MiB
    Density: 1.07 MiB
      Arrays: 0.54 MiB
      Localized functions: 0.32 MiB
      Mixer: 0.21 MiB
    Hamiltonian: 0.36 MiB
      Arrays: 0.36 MiB
      XC: 0.00 MiB
      Poisson: 0.00 MiB
      vbar: 0.01 MiB
    Wavefunctions: 18.69 MiB
      Arrays psit_nG: 10.63 MiB
      Eigensolver: 0.11 MiB
      Projections: 0.60 MiB
      Projectors: 6.36 MiB
      PW-descriptor: 0.99 MiB

Total number of cores used: 1

Number of atoms: 1
Number of atomic orbitals: 12
Number of bands in calculation: 12
Number of valence electrons: 15
Bands to converge: occupied

... initialized

Initializing position-dependent things.

Density initialized from atomic densities
Creating initial wave functions:
  12 bands from LCAO basis set

                
                
                
       Rh       
                
                
                
                

Positions:
   0 Rh     0.000000    0.000000    0.000000    ( 0.0000,  0.0000,  0.0000)

Unit cell:
           periodic     x           y           z      points  spacing
  1. axis:    yes    0.000000    1.916600    1.916600    14     0.1581
  2. axis:    yes    1.916600    0.000000    1.916600    14     0.1581
  3. axis:    yes    1.916600    1.916600    0.000000    14     0.1581

  Lengths:   2.710482   2.710482   2.710482
  Angles:   60.000000  60.000000  60.000000

Effective grid spacing dv^(1/3) = 0.1725

     iter     time        total  log10-change:
                         energy  eigst   dens
iter:   1 16:28:36    -7.893922
iter:   2 16:28:37    -7.777359  -1.83  -1.35
iter:   3 16:28:38    -7.421760  -1.18  -1.39
iter:   4 16:28:39    -7.335787  -2.82  -1.77
iter:   5 16:28:40    -7.310248  -2.31  -2.09
iter:   6 16:28:41    -7.307524  -3.73  -2.69
iter:   7 16:28:42    -7.307183c -4.48  -2.92
iter:   8 16:28:43    -7.306942c -4.36  -3.10
iter:   9 16:28:44    -7.306895c -5.06  -3.26
iter:  10 16:28:45    -7.306892c -6.36  -3.90
iter:  11 16:28:46    -7.306902c -6.13  -3.89
iter:  12 16:28:47    -7.306894c -6.37  -4.13c
iter:  13 16:28:48    -7.306894c -7.76c -5.16c

Converged after 13 iterations.

Dipole moment: (-0.000000, 0.000000, 0.000000) |e|*Ang

Energy contributions relative to reference atoms: (reference = -130134.647000)

Kinetic:         -4.554026
Potential:       +1.834429
External:        +0.000000
XC:              -4.514301
Entropy (-ST):   -0.046704
Local:           -0.049644
--------------------------
Free energy:     -7.330246
Extrapolated:    -7.306894

Showing only first 2 kpts
 Kpt  Band  Eigenvalues  Occupancy
  0     5      8.55391    2.00000
  0     6      8.55993    2.00000
  0     7     10.30405    1.99996
  0     8     10.47472    1.99979

  1     5      8.47120    2.00000
  1     6      8.47120    2.00000
  1     7     10.42672    1.99987
  1     8     10.42672    1.99987


Fermi level: 11.39040

No gap
Writing to Assignment 4/output/Rh_calculation_a=3.83.gpw (mode='')

Timing:                              incl.     excl.
-----------------------------------------------------------
Hamiltonian:                         0.048     0.000   0.0% |
 Atomic:                             0.040     0.000   0.0% |
  XC Correction:                     0.040     0.040   0.2% |
 Calculate atomic Hamiltonians:      0.000     0.000   0.0% |
 Communicate:                        0.000     0.000   0.0% |
 Initialize Hamiltonian:             0.000     0.000   0.0% |
 Poisson:                            0.000     0.000   0.0% |
 XC 3D grid:                         0.007     0.007   0.0% |
LCAO initialization:                 2.699     0.059   0.3% |
 LCAO eigensolver:                   0.367     0.004   0.0% |
  Calculate projections:             0.002     0.002   0.0% |
  DenseAtomicCorrection:             0.009     0.009   0.1% |
  Distribute overlap matrix:         0.002     0.002   0.0% |
  Orbital Layouts:                   0.026     0.026   0.2% |
  Potential matrix:                  0.292     0.292   1.7% ||
  Sum over cells:                    0.031     0.031   0.2% |
 LCAO to grid:                       1.719     1.719  10.1% |---|
 Set positions (LCAO WFS):           0.553     0.088   0.5% |
  Basic WFS set positions:           0.001     0.001   0.0% |
  Basis functions set positions:     0.000     0.000   0.0% |
  P tci:                             0.132     0.132   0.8% |
  ST tci:                            0.322     0.322   1.9% ||
  mktci:                             0.009     0.009   0.1% |
PWDescriptor:                        0.013     0.013   0.1% |
SCF-cycle:                          13.857     0.909   5.3% |-|
 Davidson:                          11.749     2.868  16.9% |------|
  Apply H:                           1.172     1.040   6.1% |-|
   HMM T:                            0.132     0.132   0.8% |
  Subspace diag:                     2.068     0.114   0.7% |
   calc_h_matrix:                    1.459     0.274   1.6% ||
    Apply H:                         1.185     1.045   6.1% |-|
     HMM T:                          0.140     0.140   0.8% |
   diagonalize:                      0.326     0.326   1.9% ||
   rotate_psi:                       0.168     0.168   1.0% |
  calc. matrices:                    3.948     1.627   9.6% |---|
   Apply H:                          2.320     2.059  12.1% |----|
    HMM T:                           0.261     0.261   1.5% ||
  diagonalize:                       1.444     1.444   8.5% |--|
  rotate_psi:                        0.250     0.250   1.5% ||
 Density:                            0.551     0.000   0.0% |
  Atomic density matrices:           0.033     0.033   0.2% |
  Mix:                               0.015     0.015   0.1% |
  Multipole moments:                 0.001     0.001   0.0% |
  Pseudo density:                    0.503     0.425   2.5% ||
   Symmetrize density:               0.079     0.079   0.5% |
 Hamiltonian:                        0.588     0.002   0.0% |
  Atomic:                            0.499     0.004   0.0% |
   XC Correction:                    0.495     0.495   2.9% ||
  Calculate atomic Hamiltonians:     0.004     0.004   0.0% |
  Communicate:                       0.000     0.000   0.0% |
  Poisson:                           0.001     0.001   0.0% |
  XC 3D grid:                        0.082     0.082   0.5% |
 Orthonormalize:                     0.059     0.008   0.0% |
  calc_s_matrix:                     0.016     0.016   0.1% |
  inverse-cholesky:                  0.009     0.009   0.1% |
  projections:                       0.020     0.020   0.1% |
  rotate_psi_s:                      0.006     0.006   0.0% |
Set symmetry:                        0.084     0.084   0.5% |
Other:                               0.306     0.306   1.8% ||
-----------------------------------------------------------
Total:                                        17.006 100.0%

Memory usage: 259.60 MiB
Date: Tue Feb 14 16:28:49 2023
