6
Lattice="16.0 0.0 0.0 0.0 16.0 0.0 0.0 0.0 16.0" Properties=species:S:1:pos:R:3:forces:R:3:magmoms:R:1 energy=-4.71241533081731 dipole="0.0013613066470419138 -0.001179102207516365 0.0006384201759435906" magmom=0.0 free_energy=-4.712415601519813 pbc="F F F"
Na      11.49553806       4.99708508       9.69415629       0.00033965      -0.00033100       0.00035100       0.00000000
Na       9.13942160       7.07753515      10.80085065      -0.00008262      -0.00029319      -0.00010945       0.00000000
Na       6.69092903       9.22461021      11.51055464       0.00049871      -0.00000795      -0.00028263       0.00000000
Na       7.77307533       7.98974701       5.06324984      -0.00052224       0.00001689       0.00005329       0.00000000
Na       9.74006624       6.39461800       7.22985785       0.00014527       0.00002474      -0.00016034       0.00000000
Na       7.07159444       8.73502497       8.23588366      -0.00000726       0.00012322      -0.00027682       0.00000000
