6
Lattice="16.0 0.0 0.0 0.0 16.0 0.0 0.0 0.0 16.0" Properties=species:S:1:pos:R:3:forces:R:3:magmoms:R:1 energy=-4.613639878420468 dipole="0.04993190384219973 0.08721865397093675 0.03660619664967424" magmom=0.0 free_energy=-4.613642072607728 pbc="F F F"
Na       8.20762132       9.43851324       8.65449545       0.00013897      -0.00008470      -0.00009665       0.00000000
Na       6.34469153       8.06492488      11.01717761      -0.00052017       0.00012495       0.00019277       0.00000000
Na       4.97181420      10.01201822       8.28724130      -0.00043449      -0.00027575       0.00027564       0.00000000
Na       7.27923654       9.81527540       5.50232655      -0.00043298      -0.00025242       0.00006228       0.00000000
Na      10.07933247       7.75339910       6.51174791       0.00010035      -0.00015750       0.00067556       0.00000000
Na       9.50597078       6.67640607       9.92570855       0.00023708       0.00023720      -0.00022090       0.00000000
