6
Lattice="16.0 0.0 0.0 0.0 16.0 0.0 0.0 0.0 16.0" Properties=species:S:1:pos:R:3:forces:R:3:magmoms:R:1 energy=-5.2685734667704525 dipole="0.01642298866412823 -0.01153150317996655 -0.012374291416438258" magmom=0.0 free_energy=-5.268582208473831 pbc="F F F"
Na      11.42319058       5.04505414       9.67205573      -0.00018792      -0.00024511       0.00039699       0.00000000
Na       9.08851071       7.13843960      10.70238390      -0.00003549       0.00023143       0.00038714       0.00000000
Na       6.69761066       9.26735001      11.51021273       0.00013736       0.00072380      -0.00014132       0.00000000
Na       7.66893245       7.98847215       5.11927137      -0.00010786      -0.00010533      -0.00022944       0.00000000
Na       9.60577202       6.46132879       7.30884238       0.00006151      -0.00029810      -0.00001503       0.00000000
Na       7.10264574       8.70829911       8.28526604      -0.00000908      -0.00050216      -0.00042065       0.00000000
