
  ___ ___ ___ _ _ _  
 |   |   |_  | | | | 
 | | | | | . | | | | 
 |__ |  _|___|_____|  22.8.0
 |___|_|             

User:   liljav@vera55-4
Date:   Thu Feb  2 13:25:20 2023
Arch:   x86_64
Pid:    1063383
CWD:    /cephyr/users/liljav/Vera/TIF320/TIF320-Computational-materials-and-molecular-physics-Assignments
Python: 3.10.4
gpaw:   /apps/Arch/software/GPAW/22.8.0-foss-2022a/lib/python3.10/site-packages/gpaw
_gpaw:  /apps/Arch/software/GPAW/22.8.0-foss-2022a/lib/python3.10/site-packages/
        _gpaw.cpython-310-x86_64-linux-gnu.so
ase:    /apps/Arch/software/ASE/3.22.1-foss-2022a/lib/python3.10/site-packages/ase (version 3.22.1)
numpy:  /apps/Arch/software/SciPy-bundle/2022.05-foss-2022a/lib/python3.10/site-packages/numpy (version 1.22.3)
scipy:  /apps/Arch/software/SciPy-bundle/2022.05-foss-2022a/lib/python3.10/site-packages/scipy (version 1.8.1)
libxc:  5.2.3
units:  Angstrom and eV
cores: 1
OpenMP: False
OMP_NUM_THREADS: 1

Input parameters:
  h: 0.25
  mode: {ecut: 50.0,
         name: pw}
  nbands: 10
  occupations: {fixmagmom: False,
                name: fermi-dirac,
                width: 0.05}
  setups: {Na: 1}

System changes: positions, numbers, cell, pbc, initial_charges, initial_magmoms 

Initialize ...

species:
  Na:
    name: Sodium
    id: fa5c50181d04022fed15b2593599c257
    Z: 11.0
    valence: 1
    core: 10
    charge: 0.0
    file: /apps/Common/software/GPAW-setups/0.9.20000/Na.1.LDA.gz
    compensation charges: {type: gauss,
                           rc: 0.43,
                           lmax: 2}
    cutoffs: {filter: 2.36,
              core: 3.60}
    valence states:
      #              energy  rcut
      - 3s(1.00)    -2.819   1.349
      - 3p(0.00)    -0.774   1.349
      -  s          24.392   1.349
  
    # Using partial waves for Na as LCAO basis

Reference energy: -26392.251304  # eV

Spin-paired calculation

Convergence criteria:
 Maximum [total energy] change in last 3 cyles: 0.0005 eV / electron
 Maximum integral of absolute [dens]ity change: 0.0001 electrons / valence electron
 Maximum integral of absolute [eigenst]ate change: 4e-08 eV^2 / valence electron
 Maximum number of scf [iter]ations: 333
 (Square brackets indicate name in SCF output, whereas a 'c' in
 the SCF output indicates the quantity has converged.)

Symmetries present (total): 1

  ( 1  0  0)
  ( 0  1  0)
  ( 0  0  1)

1 k-point (Gamma)
1 k-point in the irreducible part of the Brillouin zone
       k-points in crystal coordinates                weights
   0:     0.00000000    0.00000000    0.00000000          1/1

Wave functions: Plane wave expansion
  Cutoff energy: 50.000 eV
  Number of coefficients: 3287 (reduced to 1644)
  Pulay-stress correction: 0.000000 eV/Ang^3 (de/decut=0.000000)
  Using FFTW library
  ScaLapack parameters: grid=1x1, blocksize=None
  Wavefunction extrapolation:
    Improved wavefunction reuse through dual PAW basis 

Occupation numbers: Fermi-Dirac:
  width: 0.0500  # eV
 

Eigensolver
   Davidson(niter=2) 

Densities:
  Coarse grid: 64*64*64 grid
  Fine grid: 128*128*128 grid
  Total Charge: 0.000000 

Density mixing:
  Method: separate
  Backend: pulay
  Linear mixing parameter: 0.05
  old densities: 5
  Damping of long wavelength oscillations: 50 

Hamiltonian:
  XC and Coulomb potentials evaluated on a 128*128*128 grid
  Using the LDA Exchange-Correlation functional
  External potential:
    NoExternalPotential
 

Memory estimate:
  Process memory now: 342.89 MiB
  Calculator: 164.19 MiB
    Density: 123.30 MiB
      Arrays: 52.00 MiB
      Localized functions: 51.30 MiB
      Mixer: 20.00 MiB
    Hamiltonian: 35.05 MiB
      Arrays: 34.00 MiB
      XC: 0.00 MiB
      Poisson: 0.00 MiB
      vbar: 1.05 MiB
    Wavefunctions: 5.84 MiB
      Arrays psit_nG: 0.25 MiB
      Eigensolver: 0.38 MiB
      Projections: 0.00 MiB
      Projectors: 0.09 MiB
      PW-descriptor: 5.12 MiB

Total number of cores used: 1

Number of atoms: 6
Number of atomic orbitals: 24
Number of bands in calculation: 10
Number of valence electrons: 6
Bands to converge: occupied

... initialized

Initializing position-dependent things.

Density initialized from atomic densities
Creating initial wave functions:
  10 bands from LCAO basis set

           .--------------------------------------.  
          /|                                      |  
         / |                                      |  
        /  |                                      |  
       /   |                                      |  
      /    |                                      |  
     /     |                                      |  
    /      |                                      |  
   /       |                                      |  
  /        |                                      |  
 *         |           Na                         |  
 |         |                                      |  
 |         |                Na                    |  
 |         |                                      |  
 |         |            Na                        |  
 |         |                    Na                |  
 |         |                                      |  
 |         |                Na                    |  
 |         |                                      |  
 |         |             Na                       |  
 |         .--------------------------------------.  
 |        /                                      /   
 |       /                                      /    
 |      /                                      /     
 |     /                                      /      
 |    /                                      /       
 |   /                                      /        
 |  /                                      /         
 | /                                      /          
 |/                                      /           
 *--------------------------------------*            

Positions:
   0 Na    11.424955    5.046215    9.661160    ( 0.0000,  0.0000,  0.0000)
   1 Na     9.091214    7.135542   10.719357    ( 0.0000,  0.0000,  0.0000)
   2 Na     6.710298    9.263471   11.516303    ( 0.0000,  0.0000,  0.0000)
   3 Na     7.680133    8.011559    5.125248    ( 0.0000,  0.0000,  0.0000)
   4 Na     9.624253    6.463545    7.292195    ( 0.0000,  0.0000,  0.0000)
   5 Na     7.055205    8.690646    8.283979    ( 0.0000,  0.0000,  0.0000)

Unit cell:
           periodic     x           y           z      points  spacing
  1. axis:    no    16.000000    0.000000    0.000000    64     0.2500
  2. axis:    no     0.000000   16.000000    0.000000    64     0.2500
  3. axis:    no     0.000000    0.000000   16.000000    64     0.2500

  Lengths:  16.000000  16.000000  16.000000
  Angles:   90.000000  90.000000  90.000000

Effective grid spacing dv^(1/3) = 0.2500

     iter     time        total  log10-change:
                         energy  eigst   dens
iter:   1 13:25:25    -5.266165
iter:   2 13:25:25    -5.258791  -1.38  -0.51
iter:   3 13:25:26    -5.130708  -2.06  -0.53
iter:   4 13:25:27    -5.131079  -2.85  -0.81
iter:   5 13:25:28    -5.128628c -3.01  -0.89
iter:   6 13:25:29    -5.129984c -3.56  -1.44
iter:   7 13:25:30    -5.130574c -4.33  -1.59
iter:   8 13:25:30    -5.128920c -4.57  -1.54
iter:   9 13:25:31    -5.128538c -4.72  -1.90
iter:  10 13:25:32    -5.128538c -5.69  -2.41
iter:  11 13:25:33    -5.128532c -6.34  -2.46
iter:  12 13:25:34    -5.128534c -6.61  -2.70
iter:  13 13:25:35    -5.128533c -7.54c -2.83
iter:  14 13:25:35    -5.128532c -7.41c -2.86
iter:  15 13:25:36    -5.128533c -7.60c -2.94
iter:  16 13:25:37    -5.128533c -8.50c -3.11
iter:  17 13:25:38    -5.128533c -7.39  -3.15
iter:  18 13:25:39    -5.128533c -8.52c -3.52
iter:  19 13:25:40    -5.128533c -8.55c -3.58
iter:  20 13:25:40    -5.128533c -9.35c -3.88
iter:  21 13:25:41    -5.128533c -8.81c -3.95
iter:  22 13:25:42    -5.128533c -10.20c -4.50c

Converged after 22 iterations.

Dipole moment: (0.017700, -0.008340, -0.011086) |e|*Ang

Energy contributions relative to reference atoms: (reference = -26392.251304)

Kinetic:        +13.174043
Potential:      -12.044132
External:        +0.000000
XC:              -6.283845
Entropy (-ST):   -0.000016
Local:           +0.025409
--------------------------
Free energy:     -5.128542
Extrapolated:    -5.128533

 Band  Eigenvalues  Occupancy
    0     -4.00989    2.00000
    1     -3.00587    1.99999
    2     -3.00291    1.99999
    3     -1.76052    0.00001
    4     -1.63537    0.00000
    5     -1.61501    0.00000
    6     -1.41995    0.00000
    7     -0.66855    0.00000
    8     -0.63520    0.00000
    9     -0.57475    0.00000

Fermi level: -2.36834

Gap: 1.242 eV
Transition (v -> c):
  (s=0, k=0, n=2, [0.00, 0.00, 0.00]) -> (s=0, k=0, n=3, [0.00, 0.00, 0.00])

Forces in eV/Ang:
  0 Na   -0.00028   -0.00032    0.00305
  1 Na    0.00086   -0.00211   -0.02200
  2 Na   -0.00547    0.00439    0.00180
  3 Na   -0.00129   -0.00022   -0.00501
  4 Na   -0.01227    0.01043    0.01485
  5 Na    0.01852   -0.01211    0.00731

System changes: positions 

Initializing position-dependent things.

Density initialized from wave functions
           .--------------------------------------.  
          /|                                      |  
         / |                                      |  
        /  |                                      |  
       /   |                                      |  
      /    |                                      |  
     /     |                                      |  
    /      |                                      |  
   /       |                                      |  
  /        |                                      |  
 *         |           Na                         |  
 |         |                                      |  
 |         |                Na                    |  
 |         |                                      |  
 |         |            Na                        |  
 |         |                    Na                |  
 |         |                                      |  
 |         |                Na                    |  
 |         |                                      |  
 |         |             Na                       |  
 |         .--------------------------------------.  
 |        /                                      /   
 |       /                                      /    
 |      /                                      /     
 |     /                                      /      
 |    /                                      /       
 |   /                                      /        
 |  /                                      /         
 | /                                      /          
 |/                                      /           
 *--------------------------------------*            

Positions:
   0 Na    11.422173    5.043037    9.691627    ( 0.0000,  0.0000,  0.0000)
   1 Na     9.099823    7.114434   10.499413    ( 0.0000,  0.0000,  0.0000)
   2 Na     6.655585    9.307377   11.534258    ( 0.0000,  0.0000,  0.0000)
   3 Na     7.667234    8.009386    5.075180    ( 0.0000,  0.0000,  0.0000)
   4 Na     9.501557    6.567789    7.440666    ( 0.0000,  0.0000,  0.0000)
   5 Na     7.240389    8.569538    8.357016    ( 0.0000,  0.0000,  0.0000)

Unit cell:
           periodic     x           y           z      points  spacing
  1. axis:    no    16.000000    0.000000    0.000000    64     0.2500
  2. axis:    no     0.000000   16.000000    0.000000    64     0.2500
  3. axis:    no     0.000000    0.000000   16.000000    64     0.2500

  Lengths:  16.000000  16.000000  16.000000
  Angles:   90.000000  90.000000  90.000000

Effective grid spacing dv^(1/3) = 0.2500

     iter     time        total  log10-change:
                         energy  eigst   dens
iter:   1 13:25:44    -5.114987  -1.40
iter:   2 13:25:45    -5.094280  -2.67  -0.84
iter:   3 13:25:46    -5.039549  -2.80  -0.90
iter:   4 13:25:47    -5.039692  -4.02  -1.44
iter:   5 13:25:47    -5.040309c -4.49  -1.48
iter:   6 13:25:48    -5.040459c -4.35  -1.66
iter:   7 13:25:49    -5.040430c -5.12  -1.94
iter:   8 13:25:50    -5.040451c -5.58  -2.21
iter:   9 13:25:51    -5.040438c -6.04  -2.46
iter:  10 13:25:52    -5.040438c -6.27  -2.72
iter:  11 13:25:52    -5.040437c -7.40c -3.11
iter:  12 13:25:53    -5.040438c -7.49c -3.12
iter:  13 13:25:54    -5.040438c -7.96c -3.26
iter:  14 13:25:55    -5.040437c -8.35c -3.42
iter:  15 13:25:56    -5.040437c -9.31c -3.51
iter:  16 13:25:56    -5.040437c -8.30c -3.55
iter:  17 13:25:57    -5.040437c -9.48c -4.02c

Converged after 17 iterations.

Dipole moment: (0.038328, -0.028678, -0.020640) |e|*Ang

Energy contributions relative to reference atoms: (reference = -26392.251304)

Kinetic:        +15.909519
Potential:      -14.103103
External:        +0.000000
XC:              -6.872920
Entropy (-ST):   -0.000048
Local:           +0.026092
--------------------------
Free energy:     -5.040461
Extrapolated:    -5.040437

 Band  Eigenvalues  Occupancy
    0     -4.11081    2.00000
    1     -2.99842    1.99999
    2     -2.95619    1.99997
    3     -1.85505    0.00004
    4     -1.53332    0.00000
    5     -1.51533    0.00000
    6     -1.47066    0.00000
    7     -0.66062    0.00000
    8     -0.65504    0.00000
    9     -0.58585    0.00000

Fermi level: -2.39676

Gap: 1.101 eV
Transition (v -> c):
  (s=0, k=0, n=2, [0.00, 0.00, 0.00]) -> (s=0, k=0, n=3, [0.00, 0.00, 0.00])

Forces in eV/Ang:
  0 Na    0.02927   -0.02762   -0.02149
  1 Na   -0.01936    0.03963    0.33487
  2 Na    0.05275   -0.04783   -0.03721
  3 Na    0.01006   -0.00649    0.04564
  4 Na    0.15046   -0.14633   -0.25453
  5 Na   -0.22281    0.18846   -0.06734

System changes: positions 

Initializing position-dependent things.

Density initialized from wave functions
           .--------------------------------------.  
          /|                                      |  
         / |                                      |  
        /  |                                      |  
       /   |                                      |  
      /    |                                      |  
     /     |                                      |  
    /      |                                      |  
   /       |                                      |  
  /        |                                      |  
 *         |           Na                         |  
 |         |                                      |  
 |         |                Na                    |  
 |         |                                      |  
 |         |            Na                        |  
 |         |                    Na                |  
 |         |                                      |  
 |         |                Na                    |  
 |         |                                      |  
 |         |             Na                       |  
 |         .--------------------------------------.  
 |        /                                      /   
 |       /                                      /    
 |      /                                      /     
 |     /                                      /      
 |    /                                      /       
 |   /                                      /        
 |  /                                      /         
 | /                                      /          
 |/                                      /           
 *--------------------------------------*            

Positions:
   0 Na    11.432675    5.035281    9.673363    ( 0.0000,  0.0000,  0.0000)
   1 Na     9.090362    7.135091   10.689413    ( 0.0000,  0.0000,  0.0000)
   2 Na     6.692965    9.275600   11.515554    ( 0.0000,  0.0000,  0.0000)
   3 Na     7.675278    8.008092    5.108535    ( 0.0000,  0.0000,  0.0000)
   4 Na     9.595790    6.481744    7.303196    ( 0.0000,  0.0000,  0.0000)
   5 Na     7.099548    8.675475    8.308112    ( 0.0000,  0.0000,  0.0000)

Unit cell:
           periodic     x           y           z      points  spacing
  1. axis:    no    16.000000    0.000000    0.000000    64     0.2500
  2. axis:    no     0.000000   16.000000    0.000000    64     0.2500
  3. axis:    no     0.000000    0.000000   16.000000    64     0.2500

  Lengths:  16.000000  16.000000  16.000000
  Angles:   90.000000  90.000000  90.000000

Effective grid spacing dv^(1/3) = 0.2500

     iter     time        total  log10-change:
                         energy  eigst   dens
iter:   1 13:25:59    -5.221893  -1.38
iter:   2 13:26:00    -5.196918  -2.59  -0.82
iter:   3 13:26:01    -5.128732  -2.79  -0.88
iter:   4 13:26:02    -5.128493  -4.13  -1.45
iter:   5 13:26:03    -5.128452c -4.58  -1.51
iter:   6 13:26:03    -5.128588c -4.32  -1.65
iter:   7 13:26:04    -5.128630c -4.64  -1.82
iter:   8 13:26:05    -5.128636c -5.58  -2.40
iter:   9 13:26:06    -5.128615c -6.18  -2.46
iter:  10 13:26:07    -5.128615c -6.27  -2.72
iter:  11 13:26:08    -5.128613c -6.94  -2.98
iter:  12 13:26:08    -5.128613c -7.59c -3.20
iter:  13 13:26:09    -5.128613c -8.22c -3.39
iter:  14 13:26:10    -5.128613c -8.91c -3.42
iter:  15 13:26:11    -5.128612c -8.59c -3.43
iter:  16 13:26:12    -5.128613c -9.19c -3.49
iter:  17 13:26:13    -5.128613c -9.09c -3.52
iter:  18 13:26:13    -5.128613c -9.26c -3.61
iter:  19 13:26:14    -5.128613c -8.73c -3.70
iter:  20 13:26:15    -5.128613c -9.52c -3.83
iter:  21 13:26:16    -5.128613c -9.12c -3.89
iter:  22 13:26:17    -5.128613c -9.96c -4.04c

Converged after 22 iterations.

Dipole moment: (0.014983, -0.007317, -0.011613) |e|*Ang

Energy contributions relative to reference atoms: (reference = -26392.251304)

Kinetic:        +13.340591
Potential:      -12.163104
External:        +0.000000
XC:              -6.331931
Entropy (-ST):   -0.000020
Local:           +0.025841
--------------------------
Free energy:     -5.128623
Extrapolated:    -5.128613

 Band  Eigenvalues  Occupancy
    0     -4.02164    2.00000
    1     -3.00113    1.99999
    2     -2.99535    1.99999
    3     -1.77994    0.00001
    4     -1.61809    0.00000
    5     -1.59792    0.00000
    6     -1.42484    0.00000
    7     -0.66469    0.00000
    8     -0.64166    0.00000
    9     -0.61168    0.00000

Fermi level: -2.37333

Gap: 1.215 eV
Transition (v -> c):
  (s=0, k=0, n=2, [0.00, 0.00, 0.00]) -> (s=0, k=0, n=3, [0.00, 0.00, 0.00])

Forces in eV/Ang:
  0 Na   -0.01221    0.00915   -0.00861
  1 Na    0.00371   -0.00215    0.01305
  2 Na    0.00480   -0.00386    0.00216
  3 Na   -0.00367    0.00301    0.00965
  4 Na    0.01703   -0.01509    0.00453
  5 Na   -0.00977    0.00902   -0.02077

System changes: positions 

Initializing position-dependent things.

Density initialized from wave functions
           .--------------------------------------.  
          /|                                      |  
         / |                                      |  
        /  |                                      |  
       /   |                                      |  
      /    |                                      |  
     /     |                                      |  
    /      |                                      |  
   /       |                                      |  
  /        |                                      |  
 *         |           Na                         |  
 |         |                                      |  
 |         |                Na                    |  
 |         |                                      |  
 |         |            Na                        |  
 |         |                    Na                |  
 |         |                                      |  
 |         |                Na                    |  
 |         |                                      |  
 |         |             Na                       |  
 |         .--------------------------------------.  
 |        /                                      /   
 |       /                                      /    
 |      /                                      /     
 |     /                                      /      
 |    /                                      /       
 |   /                                      /        
 |  /                                      /         
 | /                                      /          
 |/                                      /           
 *--------------------------------------*            

Positions:
   0 Na    11.414224    5.060418    9.655652    ( 0.0000,  0.0000,  0.0000)
   1 Na     9.095165    7.128355   10.676949    ( 0.0000,  0.0000,  0.0000)
   2 Na     6.715249    9.262353   11.524156    ( 0.0000,  0.0000,  0.0000)
   3 Na     7.683617    8.015575    5.129958    ( 0.0000,  0.0000,  0.0000)
   4 Na     9.617251    6.479229    7.332582    ( 0.0000,  0.0000,  0.0000)
   5 Na     7.059954    8.664768    8.279017    ( 0.0000,  0.0000,  0.0000)

Unit cell:
           periodic     x           y           z      points  spacing
  1. axis:    no    16.000000    0.000000    0.000000    64     0.2500
  2. axis:    no     0.000000   16.000000    0.000000    64     0.2500
  3. axis:    no     0.000000    0.000000   16.000000    64     0.2500

  Lengths:  16.000000  16.000000  16.000000
  Angles:   90.000000  90.000000  90.000000

Effective grid spacing dv^(1/3) = 0.2500

     iter     time        total  log10-change:
                         energy  eigst   dens
iter:   1 13:26:19    -5.134175  -2.69
iter:   2 13:26:20    -5.132465  -3.89  -1.45
iter:   3 13:26:20    -5.127985  -4.11  -1.52
iter:   4 13:26:21    -5.127956  -5.21  -1.99
iter:   5 13:26:22    -5.127823c -5.24  -2.07
iter:   6 13:26:23    -5.127798c -5.62  -2.34
iter:   7 13:26:24    -5.127808c -5.86  -2.47
iter:   8 13:26:24    -5.127811c -6.53  -2.82
iter:   9 13:26:25    -5.127810c -6.76  -2.94
iter:  10 13:26:26    -5.127810c -7.44c -3.27
iter:  11 13:26:27    -5.127810c -8.08c -3.52
iter:  12 13:26:28    -5.127810c -8.67c -3.66
iter:  13 13:26:29    -5.127810c -9.19c -3.74
iter:  14 13:26:29    -5.127810c -8.83c -3.80
iter:  15 13:26:30    -5.127810c -9.84c -3.96
iter:  16 13:26:31    -5.127810c -9.51c -4.01c

Converged after 16 iterations.

Dipole moment: (0.029436, -0.016953, -0.013740) |e|*Ang

Energy contributions relative to reference atoms: (reference = -26392.251304)

Kinetic:        +13.747733
Potential:      -12.488724
External:        +0.000000
XC:              -6.412376
Entropy (-ST):   -0.000018
Local:           +0.025565
--------------------------
Free energy:     -5.127819
Extrapolated:    -5.127810

 Band  Eigenvalues  Occupancy
    0     -4.02879    2.00000
    1     -3.01290    1.99999
    2     -2.99235    1.99999
    3     -1.76998    0.00001
    4     -1.61641    0.00000
    5     -1.60375    0.00000
    6     -1.42926    0.00000
    7     -0.67046    0.00000
    8     -0.63723    0.00000
    9     -0.61372    0.00000

Fermi level: -2.37045

Gap: 1.222 eV
Transition (v -> c):
  (s=0, k=0, n=2, [0.00, 0.00, 0.00]) -> (s=0, k=0, n=3, [0.00, 0.00, 0.00])

Forces in eV/Ang:
  0 Na    0.02714   -0.02347    0.01061
  1 Na   -0.02029    0.01924    0.02446
  2 Na    0.00270   -0.00449   -0.01024
  3 Na    0.00432   -0.00560   -0.00914
  4 Na   -0.01207    0.00713   -0.03711
  5 Na   -0.00206    0.00724    0.02144

System changes: positions 

Initializing position-dependent things.

Density initialized from wave functions
           .--------------------------------------.  
          /|                                      |  
         / |                                      |  
        /  |                                      |  
       /   |                                      |  
      /    |                                      |  
     /     |                                      |  
    /      |                                      |  
   /       |                                      |  
  /        |                                      |  
 *         |           Na                         |  
 |         |                                      |  
 |         |                Na                    |  
 |         |                                      |  
 |         |            Na                        |  
 |         |                    Na                |  
 |         |                                      |  
 |         |                Na                    |  
 |         |                                      |  
 |         |             Na                       |  
 |         .--------------------------------------.  
 |        /                                      /   
 |       /                                      /    
 |      /                                      /     
 |     /                                      /      
 |    /                                      /       
 |   /                                      /        
 |  /                                      /         
 | /                                      /          
 |/                                      /           
 *--------------------------------------*            

Positions:
   0 Na    11.397832    5.023371    9.686003    ( 0.0000,  0.0000,  0.0000)
   1 Na     9.135984    7.107700   10.756476    ( 0.0000,  0.0000,  0.0000)
   2 Na     6.616976    9.323441   11.510982    ( 0.0000,  0.0000,  0.0000)
   3 Na     7.619114    8.001852    5.083121    ( 0.0000,  0.0000,  0.0000)
   4 Na     9.614963    6.405892    7.268319    ( 0.0000,  0.0000,  0.0000)
   5 Na     7.206918    8.751478    8.292724    ( 0.0000,  0.0000,  0.0000)

Unit cell:
           periodic     x           y           z      points  spacing
  1. axis:    no    16.000000    0.000000    0.000000    64     0.2500
  2. axis:    no     0.000000   16.000000    0.000000    64     0.2500
  3. axis:    no     0.000000    0.000000   16.000000    64     0.2500

  Lengths:  16.000000  16.000000  16.000000
  Angles:   90.000000  90.000000  90.000000

Effective grid spacing dv^(1/3) = 0.2500

     iter     time        total  log10-change:
                         energy  eigst   dens
iter:   1 13:26:33    -5.144940  -1.65
iter:   2 13:26:34    -5.139342  -2.82  -1.08
iter:   3 13:26:34    -5.121106  -2.93  -1.12
iter:   4 13:26:35    -5.120053  -4.27  -1.60
iter:   5 13:26:36    -5.120154c -4.84  -1.72
iter:   6 13:26:37    -5.120144c -4.69  -1.81
iter:   7 13:26:37    -5.120188c -5.39  -2.17
iter:   8 13:26:38    -5.120211c -5.96  -2.44
iter:   9 13:26:39    -5.120222c -6.05  -2.56
iter:  10 13:26:39    -5.120219c -6.44  -2.81
iter:  11 13:26:40    -5.120219c -7.51c -3.17
iter:  12 13:26:41    -5.120219c -7.76c -3.24
iter:  13 13:26:42    -5.120219c -7.82c -3.39
iter:  14 13:26:42    -5.120219c -7.78c -3.45
iter:  15 13:26:43    -5.120219c -9.12c -3.94
iter:  16 13:26:44    -5.120219c -9.32c -4.00
iter:  17 13:26:45    -5.120219c -9.17c -4.09c

Converged after 17 iterations.

Dipole moment: (0.021962, -0.027693, -0.016805) |e|*Ang

Energy contributions relative to reference atoms: (reference = -26392.251304)

Kinetic:        +12.249070
Potential:      -11.304189
External:        +0.000000
XC:              -6.090532
Entropy (-ST):   -0.000020
Local:           +0.025441
--------------------------
Free energy:     -5.120229
Extrapolated:    -5.120219

 Band  Eigenvalues  Occupancy
    0     -3.99047    2.00000
    1     -3.00998    1.99999
    2     -2.98156    1.99999
    3     -1.77423    0.00001
    4     -1.65165    0.00000
    5     -1.60534    0.00000
    6     -1.40736    0.00000
    7     -0.67498    0.00000
    8     -0.64845    0.00000
    9     -0.61498    0.00000

Fermi level: -2.36953

Gap: 1.207 eV
Transition (v -> c):
  (s=0, k=0, n=2, [0.00, 0.00, 0.00]) -> (s=0, k=0, n=3, [0.00, 0.00, 0.00])

Forces in eV/Ang:
  0 Na    0.01803   -0.01785   -0.00752
  1 Na   -0.07104    0.06042   -0.01207
  2 Na    0.05651   -0.04502   -0.03176
  3 Na    0.02522   -0.01589    0.03843
  4 Na   -0.03191    0.02951    0.00224
  5 Na    0.00313   -0.01118    0.01070

System changes: positions 

Initializing position-dependent things.

Density initialized from wave functions
           .--------------------------------------.  
          /|                                      |  
         / |                                      |  
        /  |                                      |  
       /   |                                      |  
      /    |                                      |  
     /     |                                      |  
    /      |                                      |  
   /       |                                      |  
  /        |                                      |  
 *         |           Na                         |  
 |         |                                      |  
 |         |                Na                    |  
 |         |                                      |  
 |         |            Na                        |  
 |         |                    Na                |  
 |         |                                      |  
 |         |                Na                    |  
 |         |                                      |  
 |         |             Na                       |  
 |         .--------------------------------------.  
 |        /                                      /   
 |       /                                      /    
 |      /                                      /     
 |     /                                      /      
 |    /                                      /       
 |   /                                      /        
 |  /                                      /         
 | /                                      /          
 |/                                      /           
 *--------------------------------------*            

Positions:
   0 Na    11.394345    5.024282    9.666496    ( 0.0000,  0.0000,  0.0000)
   1 Na     9.073718    7.159516   10.731244    ( 0.0000,  0.0000,  0.0000)
   2 Na     6.678778    9.275717   11.486202    ( 0.0000,  0.0000,  0.0000)
   3 Na     7.641208    7.991137    5.134052    ( 0.0000,  0.0000,  0.0000)
   4 Na     9.596338    6.427594    7.300809    ( 0.0000,  0.0000,  0.0000)
   5 Na     7.207133    8.735446    8.278881    ( 0.0000,  0.0000,  0.0000)

Unit cell:
           periodic     x           y           z      points  spacing
  1. axis:    no    16.000000    0.000000    0.000000    64     0.2500
  2. axis:    no     0.000000   16.000000    0.000000    64     0.2500
  3. axis:    no     0.000000    0.000000   16.000000    64     0.2500

  Lengths:  16.000000  16.000000  16.000000
  Angles:   90.000000  90.000000  90.000000

Effective grid spacing dv^(1/3) = 0.2500

     iter     time        total  log10-change:
                         energy  eigst   dens
iter:   1 13:26:47    -5.157791  -2.11
iter:   2 13:26:47    -5.149890  -3.25  -1.12
iter:   3 13:26:48    -5.128355  -3.07  -1.18
iter:   4 13:26:49    -5.128375  -4.54  -1.68
iter:   5 13:26:50    -5.128035c -5.08  -1.77
iter:   6 13:26:50    -5.127720c -4.59  -1.91
iter:   7 13:26:51    -5.127679c -5.39  -2.19
iter:   8 13:26:52    -5.127693c -5.84  -2.49
iter:   9 13:26:53    -5.127695c -6.40  -2.64
iter:  10 13:26:53    -5.127691c -6.34  -2.77
iter:  11 13:26:54    -5.127691c -7.38  -3.30
iter:  12 13:26:55    -5.127691c -7.98c -3.32
iter:  13 13:26:56    -5.127691c -8.02c -3.42
iter:  14 13:26:56    -5.127691c -8.83c -3.61
iter:  15 13:26:57    -5.127691c -8.54c -3.66
iter:  16 13:26:58    -5.127691c -8.52c -3.82
iter:  17 13:26:59    -5.127691c -9.37c -4.22c

Converged after 17 iterations.

Dipole moment: (0.002496, -0.008831, -0.012542) |e|*Ang

Energy contributions relative to reference atoms: (reference = -26392.251304)

Kinetic:        +13.581658
Potential:      -12.358688
External:        +0.000000
XC:              -6.376507
Entropy (-ST):   -0.000018
Local:           +0.025855
--------------------------
Free energy:     -5.127700
Extrapolated:    -5.127691

 Band  Eigenvalues  Occupancy
    0     -4.02435    2.00000
    1     -3.00850    1.99999
    2     -2.99591    1.99999
    3     -1.76952    0.00001
    4     -1.62105    0.00000
    5     -1.60429    0.00000
    6     -1.42637    0.00000
    7     -0.66586    0.00000
    8     -0.63450    0.00000
    9     -0.62007    0.00000

Fermi level: -2.37047

Gap: 1.226 eV
Transition (v -> c):
  (s=0, k=0, n=2, [0.00, 0.00, 0.00]) -> (s=0, k=0, n=3, [0.00, 0.00, 0.00])

Forces in eV/Ang:
  0 Na   -0.00489    0.00375    0.01011
  1 Na    0.02322   -0.02201   -0.01140
  2 Na   -0.00470    0.00884    0.00678
  3 Na    0.00711   -0.00575   -0.01693
  4 Na   -0.00039    0.00091    0.00214
  5 Na   -0.02033    0.01426    0.00924

System changes: positions 

Initializing position-dependent things.

Density initialized from wave functions
           .--------------------------------------.  
          /|                                      |  
         / |                                      |  
        /  |                                      |  
       /   |                                      |  
      /    |                                      |  
     /     |                                      |  
    /      |                                      |  
   /       |                                      |  
  /        |                                      |  
 *         |           Na                         |  
 |         |                                      |  
 |         |                Na                    |  
 |         |                                      |  
 |         |            Na                        |  
 |         |                    Na                |  
 |         |                                      |  
 |         |                Na                    |  
 |         |                                      |  
 |         |             Na                       |  
 |         .--------------------------------------.  
 |        /                                      /   
 |       /                                      /    
 |      /                                      /     
 |     /                                      /      
 |    /                                      /       
 |   /                                      /        
 |  /                                      /         
 | /                                      /          
 |/                                      /           
 *--------------------------------------*            

Positions:
   0 Na    11.418619    5.039761    9.667826    ( 0.0000,  0.0000,  0.0000)
   1 Na     9.089958    7.137144   10.703695    ( 0.0000,  0.0000,  0.0000)
   2 Na     6.700113    9.269837   11.511709    ( 0.0000,  0.0000,  0.0000)
   3 Na     7.672542    8.004610    5.118644    ( 0.0000,  0.0000,  0.0000)
   4 Na     9.606996    6.464606    7.305490    ( 0.0000,  0.0000,  0.0000)
   5 Na     7.098933    8.695726    8.290756    ( 0.0000,  0.0000,  0.0000)

Unit cell:
           periodic     x           y           z      points  spacing
  1. axis:    no    16.000000    0.000000    0.000000    64     0.2500
  2. axis:    no     0.000000   16.000000    0.000000    64     0.2500
  3. axis:    no     0.000000    0.000000   16.000000    64     0.2500

  Lengths:  16.000000  16.000000  16.000000
  Angles:   90.000000  90.000000  90.000000

Effective grid spacing dv^(1/3) = 0.2500

     iter     time        total  log10-change:
                         energy  eigst   dens
iter:   1 13:27:01    -5.131572  -2.32
iter:   2 13:27:01    -5.131201  -3.57  -1.55
iter:   3 13:27:02    -5.129347c -4.08  -1.58
iter:   4 13:27:03    -5.129333c -5.16  -1.98
iter:   5 13:27:03    -5.129334c -5.41  -2.02
iter:   6 13:27:04    -5.129361c -5.69  -2.25
iter:   7 13:27:05    -5.129408c -5.89  -2.41
iter:   8 13:27:06    -5.129410c -6.66  -2.80
iter:   9 13:27:06    -5.129412c -6.70  -2.90
iter:  10 13:27:07    -5.129412c -7.60c -3.37
iter:  11 13:27:08    -5.129412c -7.84c -3.51
iter:  12 13:27:09    -5.129412c -8.89c -3.89
iter:  13 13:27:09    -5.129412c -9.73c -3.99
iter:  14 13:27:10    -5.129412c -9.13c -4.04c

Converged after 14 iterations.

Dipole moment: (0.016711, -0.010471, -0.011768) |e|*Ang

Energy contributions relative to reference atoms: (reference = -26392.251304)

Kinetic:        +13.368654
Potential:      -12.190845
External:        +0.000000
XC:              -6.332635
Entropy (-ST):   -0.000018
Local:           +0.025423
--------------------------
Free energy:     -5.129421
Extrapolated:    -5.129412

 Band  Eigenvalues  Occupancy
    0     -4.01898    2.00000
    1     -3.00299    1.99999
    2     -3.00037    1.99999
    3     -1.77029    0.00001
    4     -1.62373    0.00000
    5     -1.60586    0.00000
    6     -1.42419    0.00000
    7     -0.66729    0.00000
    8     -0.63756    0.00000
    9     -0.61693    0.00000

Fermi level: -2.37084

Gap: 1.230 eV
Transition (v -> c):
  (s=0, k=0, n=2, [0.00, 0.00, 0.00]) -> (s=0, k=0, n=3, [0.00, 0.00, 0.00])

Forces in eV/Ang:
  0 Na    0.00020   -0.00105    0.00063
  1 Na   -0.00007    0.00014   -0.00083
  2 Na    0.00014    0.00065    0.00188
  3 Na    0.00064   -0.00078    0.00059
  4 Na   -0.00118    0.00059    0.00036
  5 Na    0.00033    0.00043   -0.00262

System changes: positions 

Initializing position-dependent things.

Density initialized from wave functions
           .--------------------------------------.  
          /|                                      |  
         / |                                      |  
        /  |                                      |  
       /   |                                      |  
      /    |                                      |  
     /     |                                      |  
    /      |                                      |  
   /       |                                      |  
  /        |                                      |  
 *         |           Na                         |  
 |         |                                      |  
 |         |                Na                    |  
 |         |                                      |  
 |         |            Na                        |  
 |         |                    Na                |  
 |         |                                      |  
 |         |                Na                    |  
 |         |                                      |  
 |         |             Na                       |  
 |         .--------------------------------------.  
 |        /                                      /   
 |       /                                      /    
 |      /                                      /     
 |     /                                      /      
 |    /                                      /       
 |   /                                      /        
 |  /                                      /         
 | /                                      /          
 |/                                      /           
 *--------------------------------------*            

Positions:
   0 Na    11.413487    5.033000    9.673077    ( 0.0000,  0.0000,  0.0000)
   1 Na     9.089967    7.138312   10.702685    ( 0.0000,  0.0000,  0.0000)
   2 Na     6.699715    9.272748   11.514061    ( 0.0000,  0.0000,  0.0000)
   3 Na     7.673007    7.995604    5.119769    ( 0.0000,  0.0000,  0.0000)
   4 Na     9.599330    6.460638    7.307148    ( 0.0000,  0.0000,  0.0000)
   5 Na     7.112619    8.711696    8.281279    ( 0.0000,  0.0000,  0.0000)

Unit cell:
           periodic     x           y           z      points  spacing
  1. axis:    no    16.000000    0.000000    0.000000    64     0.2500
  2. axis:    no     0.000000   16.000000    0.000000    64     0.2500
  3. axis:    no     0.000000    0.000000   16.000000    64     0.2500

  Lengths:  16.000000  16.000000  16.000000
  Angles:   90.000000  90.000000  90.000000

Effective grid spacing dv^(1/3) = 0.2500

     iter     time        total  log10-change:
                         energy  eigst   dens
iter:   1 13:27:12    -5.129654  -3.66
iter:   2 13:27:13    -5.129586  -4.87  -2.11
iter:   3 13:27:14    -5.129387c -5.27  -2.17
iter:   4 13:27:14    -5.129387c -6.48  -2.53
iter:   5 13:27:15    -5.129380c -6.38  -2.61
iter:   6 13:27:16    -5.129380c -6.97  -2.95
iter:   7 13:27:17    -5.129382c -7.08  -3.06
iter:   8 13:27:17    -5.129382c -7.75c -3.38
iter:   9 13:27:18    -5.129382c -8.80c -3.64
iter:  10 13:27:19    -5.129382c -8.74c -3.66
iter:  11 13:27:20    -5.129382c -8.49c -3.79
iter:  12 13:27:20    -5.129382c -9.63c -4.45c

Converged after 12 iterations.

Dipole moment: (0.015659, -0.011811, -0.015862) |e|*Ang

Energy contributions relative to reference atoms: (reference = -26392.251304)

Kinetic:        +13.362518
Potential:      -12.185812
External:        +0.000000
XC:              -6.331569
Entropy (-ST):   -0.000018
Local:           +0.025489
--------------------------
Free energy:     -5.129391
Extrapolated:    -5.129382

 Band  Eigenvalues  Occupancy
    0     -4.01900    2.00000
    1     -3.00305    1.99999
    2     -2.99985    1.99999
    3     -1.77096    0.00001
    4     -1.62256    0.00000
    5     -1.60615    0.00000
    6     -1.42415    0.00000
    7     -0.66615    0.00000
    8     -0.63774    0.00000
    9     -0.61820    0.00000

Fermi level: -2.37101

Gap: 1.229 eV
Transition (v -> c):
  (s=0, k=0, n=2, [0.00, 0.00, 0.00]) -> (s=0, k=0, n=3, [0.00, 0.00, 0.00])

Forces in eV/Ang:
  0 Na   -0.00132    0.00001   -0.00191
  1 Na   -0.00238    0.00202   -0.00031
  2 Na    0.00214   -0.00085   -0.00517
  3 Na   -0.00080    0.00050   -0.00625
  4 Na    0.00455   -0.00402    0.00412
  5 Na   -0.00232    0.00214    0.00948

System changes: positions 

Initializing position-dependent things.

Density initialized from wave functions
           .--------------------------------------.  
          /|                                      |  
         / |                                      |  
        /  |                                      |  
       /   |                                      |  
      /    |                                      |  
     /     |                                      |  
    /      |                                      |  
   /       |                                      |  
  /        |                                      |  
 *         |           Na                         |  
 |         |                                      |  
 |         |                Na                    |  
 |         |                                      |  
 |         |            Na                        |  
 |         |                    Na                |  
 |         |                                      |  
 |         |                Na                    |  
 |         |                                      |  
 |         |             Na                       |  
 |         .--------------------------------------.  
 |        /                                      /   
 |       /                                      /    
 |      /                                      /     
 |     /                                      /      
 |    /                                      /       
 |   /                                      /        
 |  /                                      /         
 | /                                      /          
 |/                                      /           
 *--------------------------------------*            

Positions:
   0 Na    11.350250    4.958816    9.703904    ( 0.0000,  0.0000,  0.0000)
   1 Na     9.071189    7.168863   10.689917    ( 0.0000,  0.0000,  0.0000)
   2 Na     6.703129    9.310426   11.494966    ( 0.0000,  0.0000,  0.0000)
   3 Na     7.672420    7.908948    5.085926    ( 0.0000,  0.0000,  0.0000)
   4 Na     9.565949    6.377917    7.347576    ( 0.0000,  0.0000,  0.0000)
   5 Na     7.236452    8.887148    8.273908    ( 0.0000,  0.0000,  0.0000)

Unit cell:
           periodic     x           y           z      points  spacing
  1. axis:    no    16.000000    0.000000    0.000000    64     0.2500
  2. axis:    no     0.000000   16.000000    0.000000    64     0.2500
  3. axis:    no     0.000000    0.000000   16.000000    64     0.2500

  Lengths:  16.000000  16.000000  16.000000
  Angles:   90.000000  90.000000  90.000000

Effective grid spacing dv^(1/3) = 0.2500

     iter     time        total  log10-change:
                         energy  eigst   dens
iter:   1 13:27:22    -5.138505  -1.67
iter:   2 13:27:23    -5.136087  -2.91  -1.20
iter:   3 13:27:24    -5.126208  -3.44  -1.24
iter:   4 13:27:24    -5.126078  -4.57  -1.59
iter:   5 13:27:25    -5.125776c -4.52  -1.66
iter:   6 13:27:26    -5.125828c -5.17  -2.03
iter:   7 13:27:27    -5.126037c -5.31  -2.11
iter:   8 13:27:27    -5.126036c -6.02  -2.44
iter:   9 13:27:28    -5.126044c -6.25  -2.62
iter:  10 13:27:29    -5.126044c -6.99  -3.16
iter:  11 13:27:30    -5.126044c -7.88c -3.38
iter:  12 13:27:30    -5.126044c -7.98c -3.43
iter:  13 13:27:31    -5.126044c -8.87c -3.71
iter:  14 13:27:32    -5.126044c -9.23c -3.75
iter:  15 13:27:33    -5.126044c -9.22c -3.82
iter:  16 13:27:33    -5.126044c -8.99c -3.95
iter:  17 13:27:34    -5.126044c -10.06c -4.34c

Converged after 17 iterations.

Dipole moment: (0.003060, -0.017545, 0.011717) |e|*Ang

Energy contributions relative to reference atoms: (reference = -26392.251304)

Kinetic:        +13.054286
Potential:      -11.937926
External:        +0.000000
XC:              -6.267808
Entropy (-ST):   -0.000020
Local:           +0.025415
--------------------------
Free energy:     -5.126054
Extrapolated:    -5.126044

 Band  Eigenvalues  Occupancy
    0     -4.01280    2.00000
    1     -3.01397    1.99999
    2     -2.98130    1.99999
    3     -1.77562    0.00001
    4     -1.63427    0.00000
    5     -1.59717    0.00000
    6     -1.41691    0.00000
    7     -0.67955    0.00000
    8     -0.64564    0.00000
    9     -0.61796    0.00000

Fermi level: -2.37010

Gap: 1.206 eV
Transition (v -> c):
  (s=0, k=0, n=2, [0.00, 0.00, 0.00]) -> (s=0, k=0, n=3, [0.00, 0.00, 0.00])

Forces in eV/Ang:
  0 Na   -0.00316    0.00246    0.01540
  1 Na    0.01404   -0.01322    0.00595
  2 Na   -0.00034    0.00916    0.00461
  3 Na    0.00509    0.00825    0.04529
  4 Na   -0.02193    0.02083   -0.02495
  5 Na    0.00626   -0.02747   -0.04636

System changes: positions 

Initializing position-dependent things.

Density initialized from wave functions
           .--------------------------------------.  
          /|                                      |  
         / |                                      |  
        /  |                                      |  
       /   |                                      |  
      /    |                                      |  
     /     |                                      |  
    /      |                                      |  
   /       |                                      |  
  /        |                                      |  
 *         |           Na                         |  
 |         |                                      |  
 |         |                Na                    |  
 |         |                                      |  
 |         |            Na                        |  
 |         |                    Na                |  
 |         |                                      |  
 |         |                Na                    |  
 |         |                                      |  
 |         |             Na                       |  
 |         .--------------------------------------.  
 |        /                                      /   
 |       /                                      /    
 |      /                                      /     
 |     /                                      /      
 |    /                                      /       
 |   /                                      /        
 |  /                                      /         
 | /                                      /          
 |/                                      /           
 *--------------------------------------*            

Positions:
   0 Na    11.410257    5.029436    9.674186    ( 0.0000,  0.0000,  0.0000)
   1 Na     9.088221    7.140233   10.701559    ( 0.0000,  0.0000,  0.0000)
   2 Na     6.702258    9.274849   11.511046    ( 0.0000,  0.0000,  0.0000)
   3 Na     7.673656    7.993047    5.116250    ( 0.0000,  0.0000,  0.0000)
   4 Na     9.600076    6.456146    7.310837    ( 0.0000,  0.0000,  0.0000)
   5 Na     7.113941    8.718025    8.284024    ( 0.0000,  0.0000,  0.0000)

Unit cell:
           periodic     x           y           z      points  spacing
  1. axis:    no    16.000000    0.000000    0.000000    64     0.2500
  2. axis:    no     0.000000   16.000000    0.000000    64     0.2500
  3. axis:    no     0.000000    0.000000   16.000000    64     0.2500

  Lengths:  16.000000  16.000000  16.000000
  Angles:   90.000000  90.000000  90.000000

Effective grid spacing dv^(1/3) = 0.2500

     iter     time        total  log10-change:
                         energy  eigst   dens
iter:   1 13:27:36    -5.136858  -1.72
iter:   2 13:27:37    -5.135681  -2.94  -1.26
iter:   3 13:27:38    -5.129418  -3.54  -1.30
iter:   4 13:27:38    -5.129320  -4.65  -1.65
iter:   5 13:27:39    -5.129188c -4.78  -1.70
iter:   6 13:27:40    -5.129247c -5.23  -2.00
iter:   7 13:27:41    -5.129432c -5.39  -2.14
iter:   8 13:27:41    -5.129439c -6.10  -2.53
iter:   9 13:27:42    -5.129445c -6.29  -2.69
iter:  10 13:27:43    -5.129445c -7.19  -3.25
iter:  11 13:27:44    -5.129445c -8.07c -3.54
iter:  12 13:27:44    -5.129445c -8.09c -3.58
iter:  13 13:27:45    -5.129445c -9.25c -3.89
iter:  14 13:27:46    -5.129445c -10.04c -3.92
iter:  15 13:27:47    -5.129445c -9.12c -3.94
iter:  16 13:27:47    -5.129445c -10.06c -4.18c

Converged after 16 iterations.

Dipole moment: (0.015730, -0.012136, -0.012291) |e|*Ang

Energy contributions relative to reference atoms: (reference = -26392.251304)

Kinetic:        +13.356200
Potential:      -12.180844
External:        +0.000000
XC:              -6.330297
Entropy (-ST):   -0.000018
Local:           +0.025505
--------------------------
Free energy:     -5.129454
Extrapolated:    -5.129445

 Band  Eigenvalues  Occupancy
    0     -4.01881    2.00000
    1     -3.00239    1.99999
    2     -3.00041    1.99999
    3     -1.77086    0.00001
    4     -1.62385    0.00000
    5     -1.60503    0.00000
    6     -1.42403    0.00000
    7     -0.66715    0.00000
    8     -0.63819    0.00000
    9     -0.61684    0.00000

Fermi level: -2.37096

Gap: 1.230 eV
Transition (v -> c):
  (s=0, k=0, n=2, [0.00, 0.00, 0.00]) -> (s=0, k=0, n=3, [0.00, 0.00, 0.00])

Forces in eV/Ang:
  0 Na   -0.00076   -0.00050    0.00035
  1 Na    0.00011   -0.00015    0.00022
  2 Na    0.00028    0.00135   -0.00081
  3 Na    0.00042    0.00004    0.00069
  4 Na   -0.00015   -0.00025   -0.00054
  5 Na   -0.00007   -0.00064   -0.00003

System changes: positions 

Initializing position-dependent things.

Density initialized from wave functions
           .--------------------------------------.  
          /|                                      |  
         / |                                      |  
        /  |                                      |  
       /   |                                      |  
      /    |                                      |  
     /     |                                      |  
    /      |                                      |  
   /       |                                      |  
  /        |                                      |  
 *         |           Na                         |  
 |         |                                      |  
 |         |                Na                    |  
 |         |                                      |  
 |         |            Na                        |  
 |         |                    Na                |  
 |         |                                      |  
 |         |                Na                    |  
 |         |                                      |  
 |         |             Na                       |  
 |         .--------------------------------------.  
 |        /                                      /   
 |       /                                      /    
 |      /                                      /     
 |     /                                      /      
 |    /                                      /       
 |   /                                      /        
 |  /                                      /         
 | /                                      /          
 |/                                      /           
 *--------------------------------------*            

Positions:
   0 Na    11.394168    5.013867    9.683872    ( 0.0000,  0.0000,  0.0000)
   1 Na     9.087074    7.143044   10.700943    ( 0.0000,  0.0000,  0.0000)
   2 Na     6.706702    9.290816   11.501147    ( 0.0000,  0.0000,  0.0000)
   3 Na     7.676867    7.981286    5.117658    ( 0.0000,  0.0000,  0.0000)
   4 Na     9.592935    6.442373    7.313436    ( 0.0000,  0.0000,  0.0000)
   5 Na     7.131481    8.739253    8.279830    ( 0.0000,  0.0000,  0.0000)

Unit cell:
           periodic     x           y           z      points  spacing
  1. axis:    no    16.000000    0.000000    0.000000    64     0.2500
  2. axis:    no     0.000000   16.000000    0.000000    64     0.2500
  3. axis:    no     0.000000    0.000000   16.000000    64     0.2500

  Lengths:  16.000000  16.000000  16.000000
  Angles:   90.000000  90.000000  90.000000

Effective grid spacing dv^(1/3) = 0.2500

     iter     time        total  log10-change:
                         energy  eigst   dens
iter:   1 13:27:49    -5.129562  -3.19
iter:   2 13:27:50    -5.129566  -4.37  -2.07
iter:   3 13:27:51    -5.129454c -5.07  -2.09
iter:   4 13:27:52    -5.129445c -6.30  -2.69
iter:   5 13:27:52    -5.129449c -6.80  -2.69
iter:   6 13:27:53    -5.129451c -6.85  -2.78
iter:   7 13:27:54    -5.129455c -7.21  -3.02
iter:   8 13:27:55    -5.129455c -7.97c -3.48
iter:   9 13:27:55    -5.129455c -8.14c -3.61
iter:  10 13:27:56    -5.129455c -9.21c -4.21c

Converged after 10 iterations.

Dipole moment: (0.014812, -0.013616, -0.011042) |e|*Ang

Energy contributions relative to reference atoms: (reference = -26392.251304)

Kinetic:        +13.381062
Potential:      -12.200958
External:        +0.000000
XC:              -6.335055
Entropy (-ST):   -0.000018
Local:           +0.025504
--------------------------
Free energy:     -5.129464
Extrapolated:    -5.129455

 Band  Eigenvalues  Occupancy
    0     -4.01920    2.00000
    1     -3.00341    1.99999
    2     -3.00005    1.99999
    3     -1.76964    0.00001
    4     -1.62424    0.00000
    5     -1.60534    0.00000
    6     -1.42420    0.00000
    7     -0.66796    0.00000
    8     -0.63846    0.00000
    9     -0.61694    0.00000

Fermi level: -2.37056

Gap: 1.230 eV
Transition (v -> c):
  (s=0, k=0, n=2, [0.00, 0.00, 0.00]) -> (s=0, k=0, n=3, [0.00, 0.00, 0.00])

Forces in eV/Ang:
  0 Na   -0.00021   -0.00081    0.00003
  1 Na   -0.00128    0.00108    0.00099
  2 Na    0.00108    0.00150    0.00163
  3 Na   -0.00055    0.00126   -0.00170
  4 Na    0.00067   -0.00053    0.00117
  5 Na    0.00039   -0.00252   -0.00222

System changes: positions 

Initializing position-dependent things.

Density initialized from wave functions
           .--------------------------------------.  
          /|                                      |  
         / |                                      |  
        /  |                                      |  
       /   |                                      |  
      /    |                                      |  
     /     |                                      |  
    /      |                                      |  
   /       |                                      |  
  /        |                                      |  
 *         |           Na                         |  
 |         |                                      |  
 |         |                Na                    |  
 |         |                                      |  
 |         |            Na                        |  
 |         |                    Na                |  
 |         |                                      |  
 |         |                Na                    |  
 |         |                                      |  
 |         |             Na                       |  
 |         .--------------------------------------.  
 |        /                                      /   
 |       /                                      /    
 |      /                                      /     
 |     /                                      /      
 |    /                                      /       
 |   /                                      /        
 |  /                                      /         
 | /                                      /          
 |/                                      /           
 *--------------------------------------*            

Positions:
   0 Na    11.374952    4.987376    9.698140    ( 0.0000,  0.0000,  0.0000)
   1 Na     9.078100    7.147968   10.701797    ( 0.0000,  0.0000,  0.0000)
   2 Na     6.738544    9.344050   11.490701    ( 0.0000,  0.0000,  0.0000)
   3 Na     7.695422    7.996346    5.112232    ( 0.0000,  0.0000,  0.0000)
   4 Na     9.599862    6.435037    7.318434    ( 0.0000,  0.0000,  0.0000)
   5 Na     7.098636    8.693707    8.271661    ( 0.0000,  0.0000,  0.0000)

Unit cell:
           periodic     x           y           z      points  spacing
  1. axis:    no    16.000000    0.000000    0.000000    64     0.2500
  2. axis:    no     0.000000   16.000000    0.000000    64     0.2500
  3. axis:    no     0.000000    0.000000   16.000000    64     0.2500

  Lengths:  16.000000  16.000000  16.000000
  Angles:   90.000000  90.000000  90.000000

Effective grid spacing dv^(1/3) = 0.2500

     iter     time        total  log10-change:
                         energy  eigst   dens
iter:   1 13:27:58    -5.129617  -2.79
iter:   2 13:27:59    -5.129611  -4.00  -1.88
iter:   3 13:27:59    -5.129381c -4.70  -1.91
iter:   4 13:28:00    -5.129388c -5.64  -2.32
iter:   5 13:28:01    -5.129419c -6.05  -2.36
iter:   6 13:28:02    -5.129429c -6.47  -2.57
iter:   7 13:28:02    -5.129443c -6.55  -2.73
iter:   8 13:28:03    -5.129444c -7.29  -3.16
iter:   9 13:28:04    -5.129445c -7.44c -3.28
iter:  10 13:28:05    -5.129445c -8.41c -3.90
iter:  11 13:28:05    -5.129445c -8.76c -3.97
iter:  12 13:28:06    -5.129445c -9.62c -4.33c

Converged after 12 iterations.

Dipole moment: (0.018988, -0.010228, -0.012186) |e|*Ang

Energy contributions relative to reference atoms: (reference = -26392.251304)

Kinetic:        +13.297521
Potential:      -12.133878
External:        +0.000000
XC:              -6.318526
Entropy (-ST):   -0.000018
Local:           +0.025448
--------------------------
Free energy:     -5.129454
Extrapolated:    -5.129445

 Band  Eigenvalues  Occupancy
    0     -4.01760    2.00000
    1     -3.00267    1.99999
    2     -2.99887    1.99999
    3     -1.77085    0.00001
    4     -1.62323    0.00000
    5     -1.60621    0.00000
    6     -1.42298    0.00000
    7     -0.66827    0.00000
    8     -0.64009    0.00000
    9     -0.61668    0.00000

Fermi level: -2.37062

Gap: 1.228 eV
Transition (v -> c):
  (s=0, k=0, n=2, [0.00, 0.00, 0.00]) -> (s=0, k=0, n=3, [0.00, 0.00, 0.00])

Forces in eV/Ang:
  0 Na   -0.00409    0.00336    0.00040
  1 Na    0.00203   -0.00159    0.00034
  2 Na    0.00076   -0.00166   -0.00234
  3 Na    0.00232   -0.00367   -0.00123
  4 Na   -0.00254    0.00094   -0.00142
  5 Na    0.00157    0.00272    0.00425

System changes: positions 

Initializing position-dependent things.

Density initialized from wave functions
           .--------------------------------------.  
          /|                                      |  
         / |                                      |  
        /  |                                      |  
       /   |                                      |  
      /    |                                      |  
     /     |                                      |  
    /      |                                      |  
   /       |                                      |  
  /        |                                      |  
 *         |           Na                         |  
 |         |                                      |  
 |         |                Na                    |  
 |         |                                      |  
 |         |            Na                        |  
 |         |                    Na                |  
 |         |                                      |  
 |         |                Na                    |  
 |         |                                      |  
 |         |             Na                       |  
 |         .--------------------------------------.  
 |        /                                      /   
 |       /                                      /    
 |      /                                      /     
 |     /                                      /      
 |    /                                      /       
 |   /                                      /        
 |  /                                      /         
 | /                                      /          
 |/                                      /           
 *--------------------------------------*            

Positions:
   0 Na    11.358029    4.981642    9.704654    ( 0.0000,  0.0000,  0.0000)
   1 Na     9.078265    7.150851   10.705824    ( 0.0000,  0.0000,  0.0000)
   2 Na     6.737973    9.346452   11.486421    ( 0.0000,  0.0000,  0.0000)
   3 Na     7.694702    7.978178    5.108095    ( 0.0000,  0.0000,  0.0000)
   4 Na     9.588259    6.423080    7.319850    ( 0.0000,  0.0000,  0.0000)
   5 Na     7.130894    8.725182    8.267971    ( 0.0000,  0.0000,  0.0000)

Unit cell:
           periodic     x           y           z      points  spacing
  1. axis:    no    16.000000    0.000000    0.000000    64     0.2500
  2. axis:    no     0.000000   16.000000    0.000000    64     0.2500
  3. axis:    no     0.000000    0.000000   16.000000    64     0.2500

  Lengths:  16.000000  16.000000  16.000000
  Angles:   90.000000  90.000000  90.000000

Effective grid spacing dv^(1/3) = 0.2500

     iter     time        total  log10-change:
                         energy  eigst   dens
iter:   1 13:28:08    -5.129775  -3.10
iter:   2 13:28:09    -5.129764  -4.34  -1.99
iter:   3 13:28:09    -5.129599c -4.90  -2.02
iter:   4 13:28:10    -5.129587c -6.13  -2.53
iter:   5 13:28:11    -5.129597c -6.47  -2.54
iter:   6 13:28:12    -5.129598c -6.55  -2.67
iter:   7 13:28:12    -5.129604c -7.00  -2.93
iter:   8 13:28:13    -5.129604c -7.68c -3.23
iter:   9 13:28:14    -5.129605c -7.61c -3.34
iter:  10 13:28:14    -5.129605c -8.82c -3.99
iter:  11 13:28:15    -5.129605c -9.59c -4.11c

Converged after 11 iterations.

Dipole moment: (0.014946, -0.010992, -0.013136) |e|*Ang

Energy contributions relative to reference atoms: (reference = -26392.251304)

Kinetic:        +13.351609
Potential:      -12.177313
External:        +0.000000
XC:              -6.329400
Entropy (-ST):   -0.000018
Local:           +0.025509
--------------------------
Free energy:     -5.129614
Extrapolated:    -5.129605

 Band  Eigenvalues  Occupancy
    0     -4.01873    2.00000
    1     -3.00214    1.99999
    2     -3.00060    1.99999
    3     -1.77038    0.00001
    4     -1.62302    0.00000
    5     -1.60580    0.00000
    6     -1.42392    0.00000
    7     -0.66719    0.00000
    8     -0.63795    0.00000
    9     -0.61746    0.00000

Fermi level: -2.37071

Gap: 1.230 eV
Transition (v -> c):
  (s=0, k=0, n=2, [0.00, 0.00, 0.00]) -> (s=0, k=0, n=3, [0.00, 0.00, 0.00])

Forces in eV/Ang:
  0 Na   -0.00024   -0.00018    0.00045
  1 Na    0.00058   -0.00055   -0.00025
  2 Na    0.00025    0.00048   -0.00103
  3 Na    0.00057   -0.00095   -0.00011
  4 Na   -0.00064   -0.00008    0.00020
  5 Na   -0.00041    0.00114    0.00080

System changes: positions 

Initializing position-dependent things.

Density initialized from wave functions
           .--------------------------------------.  
          /|                                      |  
         / |                                      |  
        /  |                                      |  
       /   |                                      |  
      /    |                                      |  
     /     |                                      |  
    /      |                                      |  
   /       |                                      |  
  /        |                                      |  
 *         |           Na                         |  
 |         |                                      |  
 |         |                Na                    |  
 |         |                                      |  
 |         |            Na                        |  
 |         |                    Na                |  
 |         |                                      |  
 |         |                Na                    |  
 |         |                                      |  
 |         |             Na                       |  
 |         .--------------------------------------.  
 |        /                                      /   
 |       /                                      /    
 |      /                                      /     
 |     /                                      /      
 |    /                                      /       
 |   /                                      /        
 |  /                                      /         
 | /                                      /          
 |/                                      /           
 *--------------------------------------*            

Positions:
   0 Na    11.328365    4.955579    9.722300    ( 0.0000,  0.0000,  0.0000)
   1 Na     9.074507    7.156676   10.708021    ( 0.0000,  0.0000,  0.0000)
   2 Na     6.753279    9.379132   11.473097    ( 0.0000,  0.0000,  0.0000)
   3 Na     7.703259    7.959283    5.102957    ( 0.0000,  0.0000,  0.0000)
   4 Na     9.575064    6.401067    7.327736    ( 0.0000,  0.0000,  0.0000)
   5 Na     7.156309    8.751184    8.257059    ( 0.0000,  0.0000,  0.0000)

Unit cell:
           periodic     x           y           z      points  spacing
  1. axis:    no    16.000000    0.000000    0.000000    64     0.2500
  2. axis:    no     0.000000   16.000000    0.000000    64     0.2500
  3. axis:    no     0.000000    0.000000   16.000000    64     0.2500

  Lengths:  16.000000  16.000000  16.000000
  Angles:   90.000000  90.000000  90.000000

Effective grid spacing dv^(1/3) = 0.2500

     iter     time        total  log10-change:
                         energy  eigst   dens
iter:   1 13:28:17    -5.129957  -2.73
iter:   2 13:28:18    -5.129979  -3.91  -1.85
iter:   3 13:28:18    -5.129670c -4.74  -1.87
iter:   4 13:28:19    -5.129661c -5.94  -2.52
iter:   5 13:28:20    -5.129669c -6.54  -2.49
iter:   6 13:28:21    -5.129679c -6.38  -2.58
iter:   7 13:28:21    -5.129687c -6.79  -2.81
iter:   8 13:28:22    -5.129688c -7.63c -3.40
iter:   9 13:28:23    -5.129688c -7.88c -3.53
iter:  10 13:28:23    -5.129688c -9.15c -4.18c

Converged after 10 iterations.

Dipole moment: (0.013401, -0.012095, -0.013608) |e|*Ang

Energy contributions relative to reference atoms: (reference = -26392.251304)

Kinetic:        +13.348645
Potential:      -12.174968
External:        +0.000000
XC:              -6.328844
Entropy (-ST):   -0.000018
Local:           +0.025489
--------------------------
Free energy:     -5.129697
Extrapolated:    -5.129688

 Band  Eigenvalues  Occupancy
    0     -4.01853    2.00000
    1     -3.00198    1.99999
    2     -3.00072    1.99999
    3     -1.77006    0.00001
    4     -1.62328    0.00000
    5     -1.60554    0.00000
    6     -1.42378    0.00000
    7     -0.66722    0.00000
    8     -0.63787    0.00000
    9     -0.61744    0.00000

Fermi level: -2.37056

Gap: 1.231 eV
Transition (v -> c):
  (s=0, k=0, n=2, [0.00, 0.00, 0.00]) -> (s=0, k=0, n=3, [0.00, 0.00, 0.00])

Forces in eV/Ang:
  0 Na    0.00024   -0.00077    0.00041
  1 Na   -0.00056    0.00044   -0.00041
  2 Na    0.00083    0.00073   -0.00156
  3 Na   -0.00013    0.00014    0.00043
  4 Na    0.00001   -0.00048    0.00074
  5 Na   -0.00045   -0.00012    0.00047

System changes: positions 

Initializing position-dependent things.

Density initialized from wave functions
           .--------------------------------------.  
          /|                                      |  
         / |                                      |  
        /  |                                      |  
       /   |                                      |  
      /    |                                      |  
     /     |                                      |  
    /      |                                      |  
   /       |                                      |  
  /        |                                      |  
 *         |           Na                         |  
 |         |                                      |  
 |         |                Na                    |  
 |         |                                      |  
 |         |            Na                        |  
 |         |                    Na                |  
 |         |                                      |  
 |         |                Na                    |  
 |         |                                      |  
 |         |             Na                       |  
 |         .--------------------------------------.  
 |        /                                      /   
 |       /                                      /    
 |      /                                      /     
 |     /                                      /      
 |    /                                      /       
 |   /                                      /        
 |  /                                      /         
 | /                                      /          
 |/                                      /           
 *--------------------------------------*            

Positions:
   0 Na    11.265418    4.897320    9.762495    ( 0.0000,  0.0000,  0.0000)
   1 Na     9.063747    7.169715   10.707146    ( 0.0000,  0.0000,  0.0000)
   2 Na     6.799048    9.462994   11.434468    ( 0.0000,  0.0000,  0.0000)
   3 Na     7.726276    7.929419    5.097242    ( 0.0000,  0.0000,  0.0000)
   4 Na     9.551622    6.355870    7.349348    ( 0.0000,  0.0000,  0.0000)
   5 Na     7.188780    8.780757    8.237093    ( 0.0000,  0.0000,  0.0000)

Unit cell:
           periodic     x           y           z      points  spacing
  1. axis:    no    16.000000    0.000000    0.000000    64     0.2500
  2. axis:    no     0.000000   16.000000    0.000000    64     0.2500
  3. axis:    no     0.000000    0.000000   16.000000    64     0.2500

  Lengths:  16.000000  16.000000  16.000000
  Angles:   90.000000  90.000000  90.000000

Effective grid spacing dv^(1/3) = 0.2500

     iter     time        total  log10-change:
                         energy  eigst   dens
iter:   1 13:28:25    -5.131110  -2.11
iter:   2 13:28:26    -5.131187  -3.29  -1.53
iter:   3 13:28:27    -5.129743c -4.10  -1.55
iter:   4 13:28:27    -5.129718c -5.22  -2.20
iter:   5 13:28:28    -5.129743c -5.88  -2.17
iter:   6 13:28:29    -5.129791c -5.78  -2.26
iter:   7 13:28:30    -5.129825c -6.14  -2.51
iter:   8 13:28:30    -5.129827c -6.96  -3.03
iter:   9 13:28:31    -5.129827c -6.97  -3.17
iter:  10 13:28:32    -5.129827c -8.02c -3.60
iter:  11 13:28:32    -5.129827c -8.84c -3.75
iter:  12 13:28:33    -5.129827c -9.17c -3.89
iter:  13 13:28:34    -5.129827c -9.83c -3.99
iter:  14 13:28:35    -5.129827c -9.68c -4.04c

Converged after 14 iterations.

Dipole moment: (0.014334, -0.013898, -0.011215) |e|*Ang

Energy contributions relative to reference atoms: (reference = -26392.251304)

Kinetic:        +13.410783
Potential:      -12.223791
External:        +0.000000
XC:              -6.342305
Entropy (-ST):   -0.000018
Local:           +0.025495
--------------------------
Free energy:     -5.129836
Extrapolated:    -5.129827

 Band  Eigenvalues  Occupancy
    0     -4.02022    2.00000
    1     -3.00425    1.99999
    2     -2.99860    1.99999
    3     -1.76905    0.00001
    4     -1.62349    0.00000
    5     -1.60364    0.00000
    6     -1.42463    0.00000
    7     -0.66880    0.00000
    8     -0.63890    0.00000
    9     -0.61579    0.00000

Fermi level: -2.37007

Gap: 1.230 eV
Transition (v -> c):
  (s=0, k=0, n=2, [0.00, 0.00, 0.00]) -> (s=0, k=0, n=3, [0.00, 0.00, 0.00])

Forces in eV/Ang:
  0 Na    0.00018   -0.00037    0.00138
  1 Na   -0.00008    0.00059    0.00337
  2 Na    0.00043    0.00160    0.00412
  3 Na   -0.00023   -0.00025   -0.00034
  4 Na   -0.00051   -0.00041   -0.00351
  5 Na    0.00023   -0.00110   -0.00507

System changes: positions 

Initializing position-dependent things.

Density initialized from wave functions
           .--------------------------------------.  
          /|                                      |  
         / |                                      |  
        /  |                                      |  
       /   |                                      |  
      /    |                                      |  
     /     |                                      |  
    /      |                                      |  
   /       |                                      |  
  /        |                                      |  
 *         |            Na                        |  
 |         |                                      |  
 |         |                Na                    |  
 |         |                                      |  
 |         |            Na                        |  
 |         |                   Na                 |  
 |         |                                      |  
 |         |                Na                    |  
 |         |                                      |  
 |         |             Na                       |  
 |         .--------------------------------------.  
 |        /                                      /   
 |       /                                      /    
 |      /                                      /     
 |     /                                      /      
 |    /                                      /       
 |   /                                      /        
 |  /                                      /         
 | /                                      /          
 |/                                      /           
 *--------------------------------------*            

Positions:
   0 Na    11.148125    4.794330    9.849225    ( 0.0000,  0.0000,  0.0000)
   1 Na     9.037729    7.202956   10.727964    ( 0.0000,  0.0000,  0.0000)
   2 Na     6.907254    9.642776   11.368999    ( 0.0000,  0.0000,  0.0000)
   3 Na     7.768183    7.880870    5.084379    ( 0.0000,  0.0000,  0.0000)
   4 Na     9.512961    6.264436    7.366537    ( 0.0000,  0.0000,  0.0000)
   5 Na     7.226029    8.798177    8.185909    ( 0.0000,  0.0000,  0.0000)

Unit cell:
           periodic     x           y           z      points  spacing
  1. axis:    no    16.000000    0.000000    0.000000    64     0.2500
  2. axis:    no     0.000000   16.000000    0.000000    64     0.2500
  3. axis:    no     0.000000    0.000000   16.000000    64     0.2500

  Lengths:  16.000000  16.000000  16.000000
  Angles:   90.000000  90.000000  90.000000

Effective grid spacing dv^(1/3) = 0.2500

     iter     time        total  log10-change:
                         energy  eigst   dens
iter:   1 13:28:36    -5.134837  -1.55
iter:   2 13:28:37    -5.134899  -2.74  -1.23
iter:   3 13:28:38    -5.129504  -3.47  -1.25
iter:   4 13:28:39    -5.129356  -4.59  -1.74
iter:   5 13:28:39    -5.129393c -4.83  -1.74
iter:   6 13:28:40    -5.129428c -5.15  -1.98
iter:   7 13:28:41    -5.129578c -5.58  -2.18
iter:   8 13:28:42    -5.129599c -6.19  -2.53
iter:   9 13:28:42    -5.129600c -6.25  -2.73
iter:  10 13:28:43    -5.129600c -7.39  -3.43
iter:  11 13:28:44    -5.129600c -8.16c -3.51
iter:  12 13:28:44    -5.129600c -8.49c -3.59
iter:  13 13:28:45    -5.129600c -9.19c -3.79
iter:  14 13:28:46    -5.129600c -9.06c -3.85
iter:  15 13:28:47    -5.129600c -9.49c -4.06c

Converged after 15 iterations.

Dipole moment: (0.012261, -0.008153, -0.017931) |e|*Ang

Energy contributions relative to reference atoms: (reference = -26392.251304)

Kinetic:        +13.164132
Potential:      -12.030940
External:        +0.000000
XC:              -6.288231
Entropy (-ST):   -0.000017
Local:           +0.025448
--------------------------
Free energy:     -5.129609
Extrapolated:    -5.129600

 Band  Eigenvalues  Occupancy
    0     -4.01288    2.00000
    1     -3.00326    1.99999
    2     -2.99918    1.99999
    3     -1.76618    0.00001
    4     -1.62601    0.00000
    5     -1.61110    0.00000
    6     -1.42061    0.00000
    7     -0.66803    0.00000
    8     -0.63827    0.00000
    9     -0.62042    0.00000

Fermi level: -2.36888

Gap: 1.233 eV
Transition (v -> c):
  (s=0, k=0, n=2, [0.00, 0.00, 0.00]) -> (s=0, k=0, n=3, [0.00, 0.00, 0.00])

Forces in eV/Ang:
  0 Na   -0.01110    0.01216   -0.00463
  1 Na    0.00646   -0.00726   -0.01228
  2 Na    0.00001   -0.00187   -0.00410
  3 Na   -0.00097   -0.00310   -0.01146
  4 Na    0.00193   -0.00082    0.01746
  5 Na    0.00401    0.00120    0.01497

System changes: positions 

Initializing position-dependent things.

Density initialized from wave functions
           .--------------------------------------.  
          /|                                      |  
         / |                                      |  
        /  |                                      |  
       /   |                                      |  
      /    |                                      |  
     /     |                                      |  
    /      |                                      |  
   /       |                                      |  
  /        |                                      |  
 *         |            Na                        |  
 |         |                                      |  
 |         |                Na                    |  
 |         |                                      |  
 |         |            Na                        |  
 |         |                   Na                 |  
 |         |                                      |  
 |         |                Na                    |  
 |         |                                      |  
 |         |             Na                       |  
 |         .--------------------------------------.  
 |        /                                      /   
 |       /                                      /    
 |      /                                      /     
 |     /                                      /      
 |    /                                      /       
 |   /                                      /        
 |  /                                      /         
 | /                                      /          
 |/                                      /           
 *--------------------------------------*            

Positions:
   0 Na    11.080685    4.785451    9.875959    ( 0.0000,  0.0000,  0.0000)
   1 Na     9.042407    7.200400   10.716523    ( 0.0000,  0.0000,  0.0000)
   2 Na     6.952031    9.706697   11.344755    ( 0.0000,  0.0000,  0.0000)
   3 Na     7.783228    7.850013    5.056391    ( 0.0000,  0.0000,  0.0000)
   4 Na     9.494218    6.231791    7.402188    ( 0.0000,  0.0000,  0.0000)
   5 Na     7.252103    8.805680    8.186069    ( 0.0000,  0.0000,  0.0000)

Unit cell:
[...]
  2. axis:    no     0.000000   16.000000    0.000000    64     0.2500
  3. axis:    no     0.000000    0.000000   16.000000    64     0.2500

  Lengths:  16.000000  16.000000  16.000000
  Angles:   90.000000  90.000000  90.000000

Effective grid spacing dv^(1/3) = 0.2500

     iter     time        total  log10-change:
                         energy  eigst   dens
iter:   1 13:32:49    -5.132558  -3.50
iter:   2 13:32:50    -5.132557  -4.68  -2.20
iter:   3 13:32:50    -5.132488c -5.27  -2.22
iter:   4 13:32:51    -5.132481c -6.46  -2.74
iter:   5 13:32:52    -5.132483c -6.78  -2.76
iter:   6 13:32:52    -5.132482c -6.84  -2.89
iter:   7 13:32:53    -5.132483c -7.60c -3.13
iter:   8 13:32:53    -5.132484c -8.28c -3.47
iter:   9 13:32:54    -5.132484c -8.17c -3.63
iter:  10 13:32:54    -5.132484c -9.30c -4.31c

Converged after 10 iterations.

Dipole moment: (-0.000345, -0.005196, -0.015299) |e|*Ang

Energy contributions relative to reference atoms: (reference = -26392.251304)

Kinetic:        +13.317164
Potential:      -12.150557
External:        +0.000000
XC:              -6.324318
Entropy (-ST):   -0.000017
Local:           +0.025236
--------------------------
Free energy:     -5.132492
Extrapolated:    -5.132484

 Band  Eigenvalues  Occupancy
    0     -4.01870    2.00000
    1     -3.00155    1.99999
    2     -3.00032    1.99999
    3     -1.76391    0.00001
    4     -1.61986    0.00000
    5     -1.60566    0.00000
    6     -1.42254    0.00000
    7     -0.66452    0.00000
    8     -0.64578    0.00000
    9     -0.61186    0.00000

Fermi level: -2.36746

Gap: 1.236 eV
Transition (v -> c):
  (s=0, k=0, n=2, [0.00, 0.00, 0.00]) -> (s=0, k=0, n=3, [0.00, 0.00, 0.00])

Forces in eV/Ang:
  0 Na    0.00137    0.00001    0.00015
  1 Na   -0.00009   -0.00084    0.00042
  2 Na    0.00020    0.00097    0.00007
  3 Na    0.00042    0.00050    0.00001
  4 Na   -0.00012    0.00029    0.00054
  5 Na   -0.00175   -0.00090   -0.00116

System changes: positions 

Initializing position-dependent things.

Density initialized from wave functions
           .--------------------------------------.  
          /|                                      |  
         / |                                      |  
        /  |                                      |  
       /   |                                      |  
      /    |                                      |  
     /     |                                      |  
    /      |                                      |  
   /       |                                      |  
  /        |                                      |  
 *         |              Na                      |  
 |         |                                      |  
 |         |                Na                    |  
 |         |                                      |  
 |         |             Na   Na                  |  
 |         |                                      |  
 |         |                                      |  
 |         |               Na                     |  
 |         |                                      |  
 |         |           Na                         |  
 |         .--------------------------------------.  
 |        /                                      /   
 |       /                                      /    
 |      /                                      /     
 |     /                                      /      
 |    /                                      /       
 |   /                                      /        
 |  /                                      /         
 | /                                      /          
 |/                                      /           
 *--------------------------------------*            

Positions:
   0 Na    10.888020    4.734765   10.222212    ( 0.0000,  0.0000,  0.0000)
   1 Na     9.294658    7.592546   10.660512    ( 0.0000,  0.0000,  0.0000)
   2 Na     7.622215   10.429875   10.888882    ( 0.0000,  0.0000,  0.0000)
   3 Na     7.333349    7.116831    5.189758    ( 0.0000,  0.0000,  0.0000)
   4 Na     9.142118    5.834465    7.639474    ( 0.0000,  0.0000,  0.0000)
   5 Na     7.420949    8.860734    7.987629    ( 0.0000,  0.0000,  0.0000)

Unit cell:
           periodic     x           y           z      points  spacing
  1. axis:    no    16.000000    0.000000    0.000000    64     0.2500
  2. axis:    no     0.000000   16.000000    0.000000    64     0.2500
  3. axis:    no     0.000000    0.000000   16.000000    64     0.2500

  Lengths:  16.000000  16.000000  16.000000
  Angles:   90.000000  90.000000  90.000000

Effective grid spacing dv^(1/3) = 0.2500

     iter     time        total  log10-change:
                         energy  eigst   dens
iter:   1 13:32:56    -5.132971  -2.64
iter:   2 13:32:56    -5.132979  -3.82  -1.78
iter:   3 13:32:57    -5.132533c -4.57  -1.81
iter:   4 13:32:58    -5.132523c -5.70  -2.43
iter:   5 13:32:58    -5.132530c -6.28  -2.40
iter:   6 13:32:59    -5.132540c -6.30  -2.53
iter:   7 13:32:59    -5.132551c -6.67  -2.77
iter:   8 13:33:00    -5.132552c -7.46c -3.20
iter:   9 13:33:00    -5.132553c -7.50c -3.30
iter:  10 13:33:01    -5.132553c -8.55c -3.88
iter:  11 13:33:02    -5.132553c -9.34c -4.01c

Converged after 11 iterations.

Dipole moment: (0.002536, -0.005558, -0.017974) |e|*Ang

Energy contributions relative to reference atoms: (reference = -26392.251304)

Kinetic:        +13.267573
Potential:      -12.111590
External:        +0.000000
XC:              -6.313752
Entropy (-ST):   -0.000017
Local:           +0.025225
--------------------------
Free energy:     -5.132561
Extrapolated:    -5.132553

 Band  Eigenvalues  Occupancy
    0     -4.01719    2.00000
    1     -3.00182    1.99999
    2     -2.99929    1.99999
    3     -1.76334    0.00001
    4     -1.61939    0.00000
    5     -1.60659    0.00000
    6     -1.42169    0.00000
    7     -0.66384    0.00000
    8     -0.64662    0.00000
    9     -0.61372    0.00000

Fermi level: -2.36701

Gap: 1.236 eV
Transition (v -> c):
  (s=0, k=0, n=2, [0.00, 0.00, 0.00]) -> (s=0, k=0, n=3, [0.00, 0.00, 0.00])

Forces in eV/Ang:
  0 Na   -0.00068    0.00055   -0.00190
  1 Na   -0.00095    0.00050   -0.00172
  2 Na   -0.00074   -0.00020   -0.00173
  3 Na    0.00127   -0.00149    0.00063
  4 Na    0.00041    0.00009    0.00072
  5 Na    0.00055    0.00050    0.00398

System changes: positions 

Initializing position-dependent things.

Density initialized from wave functions
           .--------------------------------------.  
          /|                                      |  
         / |                                      |  
        /  |                                      |  
       /   |                                      |  
      /    |                                      |  
     /     |                                      |  
    /      |                                      |  
   /       |                                      |  
  /        |                                      |  
 *         |              Na                      |  
 |         |                                      |  
 |         |                Na                    |  
 |         |                                      |  
 |         |             Na    Na                 |  
 |         |                                      |  
 |         |                                      |  
 |         |               Na                     |  
 |         |                                      |  
 |         |           Na                         |  
 |         .--------------------------------------.  
 |        /                                      /   
 |       /                                      /    
 |      /                                      /     
 |     /                                      /      
 |    /                                      /       
 |   /                                      /        
 |  /                                      /         
 | /                                      /          
 |/                                      /           
 *--------------------------------------*            

Positions:
   0 Na    10.913213    4.752784   10.213147    ( 0.0000,  0.0000,  0.0000)
   1 Na     9.295745    7.599922   10.652758    ( 0.0000,  0.0000,  0.0000)
   2 Na     7.613981   10.432857   10.882942    ( 0.0000,  0.0000,  0.0000)
   3 Na     7.330694    7.101659    5.198349    ( 0.0000,  0.0000,  0.0000)
   4 Na     9.151888    5.836658    7.640991    ( 0.0000,  0.0000,  0.0000)
   5 Na     7.395498    8.846383    8.000442    ( 0.0000,  0.0000,  0.0000)

Unit cell:
           periodic     x           y           z      points  spacing
  1. axis:    no    16.000000    0.000000    0.000000    64     0.2500
  2. axis:    no     0.000000   16.000000    0.000000    64     0.2500
  3. axis:    no     0.000000    0.000000   16.000000    64     0.2500

  Lengths:  16.000000  16.000000  16.000000
  Angles:   90.000000  90.000000  90.000000

Effective grid spacing dv^(1/3) = 0.2500

     iter     time        total  log10-change:
                         energy  eigst   dens
iter:   1 13:33:03    -5.132897  -3.07
iter:   2 13:33:04    -5.132861  -4.25  -1.94
iter:   3 13:33:04    -5.132578c -4.82  -1.96
iter:   4 13:33:05    -5.132570c -6.03  -2.43
iter:   5 13:33:05    -5.132565c -6.38  -2.45
iter:   6 13:33:06    -5.132567c -6.51  -2.68
iter:   7 13:33:06    -5.132572c -6.88  -2.88
iter:   8 13:33:07    -5.132572c -7.63c -3.24
iter:   9 13:33:08    -5.132573c -7.66c -3.34
iter:  10 13:33:08    -5.132573c -8.33c -3.72
iter:  11 13:33:09    -5.132573c -9.23c -3.99
iter:  12 13:33:09    -5.132573c -9.38c -4.05c

Converged after 12 iterations.

Dipole moment: (0.004550, -0.002109, -0.013580) |e|*Ang

Energy contributions relative to reference atoms: (reference = -26392.251304)

Kinetic:        +13.334962
Potential:      -12.164893
External:        +0.000000
XC:              -6.327922
Entropy (-ST):   -0.000017
Local:           +0.025289
--------------------------
Free energy:     -5.132581
Extrapolated:    -5.132573

 Band  Eigenvalues  Occupancy
    0     -4.01910    2.00000
    1     -3.00279    1.99999
    2     -2.99875    1.99999
    3     -1.76306    0.00001
    4     -1.61868    0.00000
    5     -1.60529    0.00000
    6     -1.42279    0.00000
    7     -0.66573    0.00000
    8     -0.64484    0.00000
    9     -0.61500    0.00000

Fermi level: -2.36694

Gap: 1.236 eV
Transition (v -> c):
  (s=0, k=0, n=2, [0.00, 0.00, 0.00]) -> (s=0, k=0, n=3, [0.00, 0.00, 0.00])

Forces in eV/Ang:
  0 Na    0.00020    0.00100    0.00138
  1 Na    0.00186   -0.00066    0.00236
  2 Na   -0.00048    0.00088    0.00218
  3 Na   -0.00093    0.00045   -0.00048
  4 Na   -0.00070    0.00017   -0.00147
  5 Na    0.00017   -0.00184   -0.00414

System changes: positions 

Initializing position-dependent things.

Density initialized from wave functions
           .--------------------------------------.  
          /|                                      |  
         / |                                      |  
        /  |                                      |  
       /   |                                      |  
      /    |                                      |  
     /     |                                      |  
    /      |                                      |  
   /       |                                      |  
  /        |                                      |  
 *         |              Na                      |  
 |         |                                      |  
 |         |                Na                    |  
 |         |                                      |  
 |         |             Na    Na                 |  
 |         |                                      |  
 |         |                                      |  
 |         |               Na                     |  
 |         |                                      |  
 |         |           Na                         |  
 |         .--------------------------------------.  
 |        /                                      /   
 |       /                                      /    
 |      /                                      /     
 |     /                                      /      
 |    /                                      /       
 |   /                                      /        
 |  /                                      /         
 | /                                      /          
 |/                                      /           
 *--------------------------------------*            

Positions:
   0 Na    10.919084    4.759702   10.213031    ( 0.0000,  0.0000,  0.0000)
   1 Na     9.298260    7.601477   10.656295    ( 0.0000,  0.0000,  0.0000)
   2 Na     7.612242   10.432809   10.883303    ( 0.0000,  0.0000,  0.0000)
   3 Na     7.326032    7.097932    5.197128    ( 0.0000,  0.0000,  0.0000)
   4 Na     9.150463    5.836246    7.640612    ( 0.0000,  0.0000,  0.0000)
   5 Na     7.395422    8.842192    7.997799    ( 0.0000,  0.0000,  0.0000)

Unit cell:
           periodic     x           y           z      points  spacing
  1. axis:    no    16.000000    0.000000    0.000000    64     0.2500
  2. axis:    no     0.000000   16.000000    0.000000    64     0.2500
  3. axis:    no     0.000000    0.000000   16.000000    64     0.2500

  Lengths:  16.000000  16.000000  16.000000
  Angles:   90.000000  90.000000  90.000000

Effective grid spacing dv^(1/3) = 0.2500

     iter     time        total  log10-change:
                         energy  eigst   dens
iter:   1 13:33:11    -5.132673  -4.29
iter:   2 13:33:11    -5.132658  -5.44  -2.40
iter:   3 13:33:12    -5.132600c -5.78  -2.43
iter:   4 13:33:12    -5.132600c -7.00  -2.88
iter:   5 13:33:13    -5.132598c -7.06  -2.91
iter:   6 13:33:14    -5.132597c -7.38  -3.17
iter:   7 13:33:14    -5.132598c -7.71c -3.34
iter:   8 13:33:15    -5.132598c -8.43c -3.80
iter:   9 13:33:15    -5.132598c -8.86c -3.89
iter:  10 13:33:16    -5.132598c -9.35c -4.20c

Converged after 10 iterations.

Dipole moment: (0.004023, -0.002659, -0.016458) |e|*Ang

Energy contributions relative to reference atoms: (reference = -26392.251304)

Kinetic:        +13.306825
Potential:      -12.142702
External:        +0.000000
XC:              -6.321972
Entropy (-ST):   -0.000017
Local:           +0.025259
--------------------------
Free energy:     -5.132606
Extrapolated:    -5.132598

 Band  Eigenvalues  Occupancy
    0     -4.01824    2.00000
    1     -3.00094    1.99999
    2     -3.00035    1.99999
    3     -1.76296    0.00001
    4     -1.61885    0.00000
    5     -1.60577    0.00000
    6     -1.42230    0.00000
    7     -0.66466    0.00000
    8     -0.64594    0.00000
    9     -0.61439    0.00000

Fermi level: -2.36686

Gap: 1.237 eV
Transition (v -> c):
  (s=0, k=0, n=2, [0.00, 0.00, 0.00]) -> (s=0, k=0, n=3, [0.00, 0.00, 0.00])

Forces in eV/Ang:
  0 Na    0.00025   -0.00013    0.00026
  1 Na    0.00001    0.00077   -0.00000
  2 Na   -0.00049   -0.00079   -0.00030
  3 Na   -0.00044   -0.00015   -0.00029
  4 Na    0.00032   -0.00011    0.00016
  5 Na    0.00035    0.00039    0.00013

Writing to Assignment 2/problem_8/result/planewave_50/groundstate/calc_state.gpw (mode='')

Timing:                                      incl.     excl.
-------------------------------------------------------------------
Density initialized from wave functions:     7.568     7.567   1.6% ||
 Symmetrize density:                         0.001     0.001   0.0% |
Forces:                                     32.020    32.020   6.7% |--|
Hamiltonian:                                17.002     0.172   0.0% |
 Atomic:                                     2.522     0.030   0.0% |
  XC Correction:                             2.492     2.492   0.5% |
 Calculate atomic Hamiltonians:              5.029     5.029   1.1% |
 Communicate:                                0.000     0.000   0.0% |
 Initialize Hamiltonian:                     0.000     0.000   0.0% |
 Poisson:                                    0.361     0.361   0.1% |
 XC 3D grid:                                 8.918     8.918   1.9% ||
LCAO initialization:                         0.069     0.014   0.0% |
 LCAO eigensolver:                           0.010     0.001   0.0% |
  Calculate projections:                     0.000     0.000   0.0% |
  DenseAtomicCorrection:                     0.000     0.000   0.0% |
  Distribute overlap matrix:                 0.000     0.000   0.0% |
  Orbital Layouts:                           0.001     0.001   0.0% |
  Potential matrix:                          0.009     0.009   0.0% |
 LCAO to grid:                               0.030     0.030   0.0% |
 Set positions (LCAO WFS):                   0.014     0.002   0.0% |
  Basic WFS set positions:                   0.000     0.000   0.0% |
  Basis functions set positions:             0.000     0.000   0.0% |
  P tci:                                     0.007     0.007   0.0% |
  ST tci:                                    0.002     0.002   0.0% |
  mktci:                                     0.002     0.002   0.0% |
PWDescriptor:                                0.551     0.551   0.1% |
Redistribute:                                0.017     0.017   0.0% |
SCF-cycle:                                 402.643     0.360   0.1% |
 Davidson:                                  64.710     2.142   0.4% |
  Apply H:                                  15.140    15.037   3.2% ||
   HMM T:                                    0.102     0.102   0.0% |
  Subspace diag:                            15.825     0.050   0.0% |
   calc_h_matrix:                           15.581     0.242   0.1% |
    Apply H:                                15.339    15.226   3.2% ||
     HMM T:                                  0.113     0.113   0.0% |
   diagonalize:                              0.111     0.111   0.0% |
   rotate_psi:                               0.083     0.083   0.0% |
  calc. matrices:                           31.219     1.027   0.2% |
   Apply H:                                 30.192    29.991   6.3% |--|
    HMM T:                                   0.201     0.201   0.0% |
  diagonalize:                               0.289     0.289   0.1% |
  rotate_psi:                                0.096     0.096   0.0% |
 Density:                                  110.273     0.009   0.0% |
  Atomic density matrices:                   0.330     0.330   0.1% |
  Mix:                                     101.090   101.090  21.2% |-------|
  Multipole moments:                         0.080     0.080   0.0% |
  Pseudo density:                            8.764     8.755   1.8% ||
   Symmetrize density:                       0.009     0.009   0.0% |
 Hamiltonian:                              227.260     2.288   0.5% |
  Atomic:                                   34.035     0.396   0.1% |
   XC Correction:                           33.639    33.639   7.0% |--|
  Calculate atomic Hamiltonians:            67.410    67.410  14.1% |-----|
  Communicate:                               0.005     0.005   0.0% |
  Poisson:                                   4.732     4.732   1.0% |
  XC 3D grid:                              118.790   118.790  24.9% |---------|
 Orthonormalize:                             0.039     0.004   0.0% |
  calc_s_matrix:                             0.011     0.011   0.0% |
  inverse-cholesky:                          0.004     0.004   0.0% |
  projections:                               0.018     0.018   0.0% |
  rotate_psi_s:                              0.002     0.002   0.0% |
Set symmetry:                                0.002     0.002   0.0% |
Other:                                      17.474    17.474   3.7% ||
-------------------------------------------------------------------
Total:                                               477.345 100.0%

Memory usage: 608.97 MiB
Date: Thu Feb  2 13:33:17 2023
