29
Lattice="8.860755075048626 0.0 0.0 4.430377537524313 7.673638991703999 0.0 0.0 0.0 16.823184148810135" Properties=species:S:1:pos:R:3:tags:I:1:forces:R:3:magmoms:R:1 energy=-92.9371579788872 dipole="-0.48374466059650423 0.9100219520800098 0.10070256574220914" magmom=0.0 free_energy=-93.09081212321942 pbc="T T F"
Au       1.47679251       0.85262655       6.00000000        3      -0.00312330      -0.03200622      -0.06905795       0.00000000
Au       4.43037754       0.85262655       6.00000000        3       0.03382083       0.01890147      -0.03680893       0.00000000
Au       7.38396256       0.85262655       6.00000000        3      -0.03994777       0.01874175      -0.04794574       0.00000000
Au       2.95358503       3.41050622       6.00000000        3       0.00110819       0.02166955      -0.02649046       0.00000000
Au       5.90717005       3.41050622       6.00000000        3      -0.00235976      -0.02315206      -0.04820828       0.00000000
Au       8.86075508       3.41050622       6.00000000        3      -0.00438308       0.02198108      -0.04239092       0.00000000
Au       4.43037754       5.96838588       6.00000000        3       0.01306040      -0.01109712      -0.04986021       0.00000000
Au       7.38396256       5.96838588       6.00000000        3      -0.01555769      -0.01004819      -0.06987395       0.00000000
Au      10.33754759       5.96838588       6.00000000        3      -0.00287036      -0.01869304      -0.02436081       0.00000000
Au      -0.00000000       1.70525311       8.41159207        2       0.00744510      -0.02486876       0.03226638       0.00000000
Au       2.95358503       1.70525311       8.41159207        2      -0.00518671      -0.03376008       0.02121982       0.00000000
Au       5.90717005       1.70525311       8.41159207        2       0.00308434       0.03144630      -0.01812792       0.00000000
Au       1.47679251       4.26313277       8.41159207        2       0.00147969       0.03178011      -0.02617526       0.00000000
Au       4.43037754       4.26313277       8.41159207        2      -0.00300947      -0.00230421       0.00141356       0.00000000
Au       7.38396256       4.26313277       8.41159207        2       0.00403515      -0.01014474       0.00946933       0.00000000
Au       2.95358503       6.82101244       8.41159207        2       0.04164305       0.00163566       0.05046335       0.00000000
Au       5.90717005       6.82101244       8.41159207        2      -0.00080023       0.00456918      -0.09907542       0.00000000
Au       8.86075508       6.82101244       8.41159207        2      -0.03673825       0.01076321       0.05485906       0.00000000
Au       0.00000000       0.00000000      10.82318415        1      -0.20411916       0.01574548       0.37240202       0.00000000
Au       2.95358503       0.00000000      10.82318415        1       0.19407140       0.03010967       0.37623951       0.00000000
Au       5.90717005       0.00000000      10.82318415        1       0.00450367      -0.00885190       0.06473262       0.00000000
Au       1.47679251       2.55787966      10.82318415        1       0.00006804       0.27731366      -0.05366891       0.00000000
Au       4.43037754       2.55787966      10.82318415        1       0.01036249       0.02505825       0.04665501       0.00000000
Au       7.38396256       2.55787966      10.82318415        1      -0.00751451       0.03643628       0.04514308       0.00000000
Au       2.95358503       5.11575933      10.82318415        1      -0.00392659      -0.01474940       0.03369696       0.00000000
Au       5.90717005       5.11575933      10.82318415        1       0.00228124      -0.33086294      -0.06885043       0.00000000
Au       8.86075508       5.11575933      10.82318415        1       0.00993865      -0.02860482       0.03584438       0.00000000
O        1.47679251       0.00000000      13.97352415        0       0.00195460      -0.00931466      -0.42503599       0.00000000
C        1.47885335      -0.01601328      12.81797477        0       0.00385969      -0.00530532      -0.00383587       0.00000000
