29
Lattice="8.860755075048626 0.0 0.0 4.430377537524313 7.673638991703999 0.0 0.0 0.0 16.823184148810135" Properties=species:S:1:pos:R:3:tags:I:1:forces:R:3:magmoms:R:1 energy=-92.87043785855732 dipole="-0.7377330800377999 -0.4259303923497874 0.0964401305894924" magmom=0.0 free_energy=-93.02217605730578 pbc="T T F"
Au       1.47679251       0.85262655       6.00000000        3       0.01867152       0.01078001      -0.05776994       0.00000000
Au       4.43037754       0.85262655       6.00000000        3      -0.02238598       0.01456524      -0.07024795       0.00000000
Au       7.38396256       0.85262655       6.00000000        3      -0.00275507      -0.01827555      -0.02797570       0.00000000
Au       2.95358503       3.41050622       6.00000000        3       0.00142088      -0.02666944      -0.07024795       0.00000000
Au       5.90717005       3.41050622       6.00000000        3       0.03244785       0.01873378      -0.03943335       0.00000000
Au       8.86075508       3.41050622       6.00000000        3      -0.04120905       0.01649806      -0.05091043       0.00000000
Au       4.43037754       5.96838588       6.00000000        3      -0.01720462       0.00675182      -0.02797570       0.00000000
Au       7.38396256       5.96838588       6.00000000        3      -0.00631679      -0.04393712      -0.05091043       0.00000000
Au      10.33754759       5.96838588       6.00000000        3       0.01761482       0.01016992      -0.03482291       0.00000000
Au      -0.00000000       1.70525311       8.41159207        2       0.02189880      -0.00926257       0.03534408       0.00000000
Au       2.95358503       1.70525311       8.41159207        2       0.00371561       0.00214521      -0.11844754       0.00000000
Au       5.90717005       1.70525311       8.41159207        2      -0.02456520       0.00379156       0.02703690       0.00000000
Au       1.47679251       4.26313277       8.41159207        2       0.00294627      -0.00395367       0.03928679       0.00000000
Au       4.43037754       4.26313277       8.41159207        2      -0.00899901      -0.02316986       0.02703690       0.00000000
Au       7.38396256       4.26313277       8.41159207        2       0.00941637       0.00543655      -0.02610640       0.00000000
Au       2.95358503       6.82101244       8.41159207        2       0.00422948       0.00244189      -0.03548677       0.00000000
Au       5.90717005       6.82101244       8.41159207        2       0.00292778       0.02359620       0.03534408       0.00000000
Au       8.86075508       6.82101244       8.41159207        2      -0.00195084       0.00452838       0.03928679       0.00000000
Au       0.00000000       0.00000000      10.82318415        1      -0.05800626      -0.03348993       0.01725439       0.00000000
Au       2.95358503       0.00000000      10.82318415        1       0.00149470      -0.27010737       0.16739774       0.00000000
Au       5.90717005       0.00000000      10.82318415        1       0.06815298      -0.04143189       0.01828607       0.00000000
Au       1.47679251       2.55787966      10.82318415        1      -0.23317250       0.13634813       0.16739774       0.00000000
Au       4.43037754       2.55787966      10.82318415        1       0.24124559       0.13928321       0.17856174       0.00000000
Au       7.38396256       2.55787966      10.82318415        1      -0.00505900      -0.01460950       0.06828510       0.00000000
Au       2.95358503       5.11575933      10.82318415        1      -0.00180458       0.07973816       0.01828607       0.00000000
Au       5.90717005       5.11575933      10.82318415        1      -0.01518170       0.00292352       0.06828510       0.00000000
Au       8.86075508       5.11575933      10.82318415        1       0.02027515       0.01170586       0.07002830       0.00000000
O        2.95358503       1.70525311      13.97352415        0       0.00288959       0.00166831      -0.28463647       0.00000000
C        2.95289331       1.70485374      12.81916716        0      -0.00937346      -0.00541177      -0.01499452       0.00000000
