29
Lattice="8.860755075048626 0.0 0.0 4.430377537524313 7.673638991703999 0.0 0.0 0.0 16.823184148810135" Properties=species:S:1:pos:R:3:tags:I:1:forces:R:3:magmoms:R:1 energy=-92.8624739870401 dipole="-4.997236142792497 -2.8851556322448753 0.08822750069966336" magmom=0.0 free_energy=-93.01447730986376 pbc="T T F"
Au       1.47679251       0.85262655       6.00000000        3      -0.00750576      -0.00433345      -0.06197331       0.00000000
Au       4.43037754       0.85262655       6.00000000        3       0.02494564       0.01127171      -0.03971775       0.00000000
Au       7.38396256       0.85262655       6.00000000        3      -0.02604207       0.01309031      -0.03945691       0.00000000
Au       2.95358503       3.41050622       6.00000000        3       0.02223440       0.01596770      -0.03971775       0.00000000
Au       5.90717005       3.41050622       6.00000000        3      -0.00167569      -0.00096746      -0.05287814       0.00000000
Au       8.86075508       3.41050622       6.00000000        3      -0.02619578       0.00992314      -0.05685536       0.00000000
Au       4.43037754       5.96838588       6.00000000        3      -0.00168449      -0.02909825      -0.03945691       0.00000000
Au       7.38396256       5.96838588       6.00000000        3      -0.00450420      -0.02764778      -0.05685536       0.00000000
Au      10.33754759       5.96838588       6.00000000        3      -0.00039106      -0.00022578      -0.02317859       0.00000000
Au      -0.00000000       1.70525311       8.41159207        2       0.01413201      -0.01486125      -0.02893690       0.00000000
Au       2.95358503       1.70525311       8.41159207        2      -0.00967523      -0.00558600      -0.03590715       0.00000000
Au       5.90717005       1.70525311       8.41159207        2      -0.00050046       0.01438443      -0.01045272       0.00000000
Au       1.47679251       4.26313277       8.41159207        2      -0.00238209       0.00086879       0.03198650       0.00000000
Au       4.43037754       4.26313277       8.41159207        2       0.01220705      -0.00762563      -0.01045272       0.00000000
Au       7.38396256       4.26313277       8.41159207        2      -0.00987682      -0.00570239      -0.00004015       0.00000000
Au       2.95358503       6.82101244       8.41159207        2       0.01004672       0.00580047       0.01403557       0.00000000
Au       5.90717005       6.82101244       8.41159207        2      -0.00580422       0.01966931      -0.02893690       0.00000000
Au       8.86075508       6.82101244       8.41159207        2      -0.00043865      -0.00249735       0.03198650       0.00000000
Au       0.00000000       0.00000000      10.82318415        1      -0.19904220      -0.11491707       0.19053744       0.00000000
Au       2.95358503       0.00000000      10.82318415        1       0.18572300      -0.11277020       0.19063970       0.00000000
Au       5.90717005       0.00000000      10.82318415        1       0.00991710      -0.00030631       0.05291873       0.00000000
Au       1.47679251       2.55787966      10.82318415        1      -0.00480036       0.21722593       0.19063970       0.00000000
Au       4.43037754       2.55787966      10.82318415        1       0.08716114       0.05032251       0.01854190       0.00000000
Au       7.38396256       2.55787966      10.82318415        1      -0.08780813       0.05665053       0.01630803       0.00000000
Au       2.95358503       5.11575933      10.82318415        1       0.00469328       0.00874162       0.05291873       0.00000000
Au       5.90717005       5.11575933      10.82318415        1       0.00515674      -0.10436934       0.01630803       0.00000000
Au       8.86075508       5.11575933      10.82318415        1      -0.00296690      -0.00171294       0.05966829       0.00000000
O        1.47679251       0.85262655      13.97352415        0      -0.00627004      -0.00362001      -0.30794919       0.00000000
C        1.48526772       0.85751972      12.81865117        0       0.00308962       0.00178380      -0.00198472       0.00000000
