29
Lattice="8.860755075048626 0.0 0.0 4.430377537524313 7.673638991703999 0.0 0.0 0.0 16.823184148810135" Properties=species:S:1:pos:R:3:tags:I:1:forces:R:3:magmoms:R:1 energy=-92.86227663202168 dipole="-5.034728721822799 -2.9068019828411007 0.08747036088252912" magmom=0.0 free_energy=-93.01434118077714 pbc="T T F"
Au       1.47679251       0.85262655       6.00000000        3      -0.00712586      -0.00411412      -0.06198147       0.00000000
Au       4.43037754       0.85262655       6.00000000        3       0.02497784       0.01144602      -0.03889188       0.00000000
Au       7.38396256       0.85262655       6.00000000        3      -0.02659038       0.01387216      -0.03956485       0.00000000
Au       2.95358503       3.41050622       6.00000000        3       0.02240146       0.01590844      -0.03889188       0.00000000
Au       5.90717005       3.41050622       6.00000000        3      -0.00246250      -0.00142173      -0.05277408       0.00000000
Au       8.86075508       3.41050622       6.00000000        3      -0.02550272       0.01058543      -0.05667882       0.00000000
Au       4.43037754       5.96838588       6.00000000        3      -0.00128154      -0.02996403      -0.03956485       0.00000000
Au       7.38396256       5.96838588       6.00000000        3      -0.00358411      -0.02737872      -0.05667882       0.00000000
Au      10.33754759       5.96838588       6.00000000        3      -0.00157565      -0.00090970      -0.02279784       0.00000000
Au      -0.00000000       1.70525311       8.41159207        2       0.01457738      -0.01436764      -0.02880498       0.00000000
Au       2.95358503       1.70525311       8.41159207        2      -0.00939049      -0.00542160      -0.03707165       0.00000000
Au       5.90717005       1.70525311       8.41159207        2      -0.00185987       0.01488728      -0.01203795       0.00000000
Au       1.47679251       4.26313277       8.41159207        2      -0.00278902       0.00155111       0.02915909       0.00000000
Au       4.43037754       4.26313277       8.41159207        2       0.01196283      -0.00905434      -0.01203795       0.00000000
Au       7.38396256       4.26313277       8.41159207        2      -0.00904639      -0.00522293      -0.00143026       0.00000000
Au       2.95358503       6.82101244       8.41159207        2       0.01048029       0.00605080       0.01493320       0.00000000
Au       5.90717005       6.82101244       8.41159207        2      -0.00515405       0.01980820      -0.02880498       0.00000000
Au       8.86075508       6.82101244       8.41159207        2      -0.00005121      -0.00319092       0.02915909       0.00000000
Au       0.00000000       0.00000000      10.82318415        1      -0.19653712      -0.11347076       0.19758456       0.00000000
Au       2.95358503       0.00000000      10.82318415        1       0.18422067      -0.10929051       0.18844526       0.00000000
Au       5.90717005       0.00000000      10.82318415        1       0.01254852      -0.00030091       0.05737708       0.00000000
Au       1.47679251       2.55787966      10.82318415        1      -0.00253802       0.21418503       0.18844526       0.00000000
Au       4.43037754       2.55787966      10.82318415        1       0.08462332       0.04885730       0.02243780       0.00000000
Au       7.38396256       2.55787966      10.82318415        1      -0.08651103       0.05631946       0.01997737       0.00000000
Au       2.95358503       5.11575933      10.82318415        1       0.00601366       0.01101780       0.05737708       0.00000000
Au       5.90717005       5.11575933      10.82318415        1       0.00551856      -0.10308048       0.01997737       0.00000000
Au       8.86075508       5.11575933      10.82318415        1      -0.00427993      -0.00247102       0.06278231       0.00000000
O        1.47679251       0.85262655      13.97352415        0      -0.00370033      -0.00213639      -0.29865971       0.00000000
C        1.47761097       0.85309909      12.81863075        0       0.01094583       0.00631958       0.00465208       0.00000000
