29
Lattice="8.860755075048626 0.0 0.0 4.430377537524313 7.673638991703999 0.0 0.0 0.0 16.823184148810135" Properties=species:S:1:pos:R:3:tags:I:1:forces:R:3:magmoms:R:1 energy=-93.16195449608534 dipole="-0.1090143521400888 -0.06293946555362474 0.25289415732398624" magmom=0.0 free_energy=-93.31541587365064 pbc="T T F"
Au       1.47679251       0.85262655       6.00000000        3       0.00535684       0.00309277      -0.08352061       0.00000000
Au       4.43037754       0.85262655       6.00000000        3       0.00000000       0.01672656      -0.03168780       0.00000000
Au       7.38396256       0.85262655       6.00000000        3      -0.00535684       0.00309277      -0.08352061       0.00000000
Au       2.95358503       3.41050622       6.00000000        3       0.01448563      -0.00836328      -0.03168780       0.00000000
Au       5.90717005       3.41050622       6.00000000        3      -0.01448563      -0.00836328      -0.03168780       0.00000000
Au       8.86075508       3.41050622       6.00000000        3       0.00000000       0.03085018      -0.03515894       0.00000000
Au       4.43037754       5.96838588       6.00000000        3       0.00000000      -0.00618554      -0.08352061       0.00000000
Au       7.38396256       5.96838588       6.00000000        3       0.02671704      -0.01542509      -0.03515894       0.00000000
Au      10.33754759       5.96838588       6.00000000        3      -0.02671704      -0.01542509      -0.03515894       0.00000000
Au      -0.00000000       1.70525311       8.41159207        2       0.00000000      -0.10194023       0.09941749       0.00000000
Au       2.95358503       1.70525311       8.41159207        2       0.02622069       0.01513852       0.01451026       0.00000000
Au       5.90717005       1.70525311       8.41159207        2      -0.02622069       0.01513852       0.01451026       0.00000000
Au       1.47679251       4.26313277       8.41159207        2      -0.02268222       0.01309558      -0.01922080       0.00000000
Au       4.43037754       4.26313277       8.41159207        2      -0.00000000      -0.03027704       0.01451026       0.00000000
Au       7.38396256       4.26313277       8.41159207        2       0.02268222       0.01309558      -0.01922080       0.00000000
Au       2.95358503       6.82101244       8.41159207        2       0.08828283       0.05097011       0.09941749       0.00000000
Au       5.90717005       6.82101244       8.41159207        2      -0.08828283       0.05097011       0.09941749       0.00000000
Au       8.86075508       6.82101244       8.41159207        2      -0.00000000      -0.02619117      -0.01922080       0.00000000
Au       0.00000000       0.00000000      10.82318415        1       0.00000000       0.00000000      -0.27472020       0.00000000
Au       2.95358503       0.00000000      10.82318415        1       0.28738229       0.01728822      -0.03204399       0.00000000
Au       5.90717005       0.00000000      10.82318415        1      -0.28738229       0.01728822      -0.03204399       0.00000000
Au       1.47679251       2.55787966      10.82318415        1       0.15866319       0.24023625      -0.03204399       0.00000000
Au       4.43037754       2.55787966      10.82318415        1       0.00000000       0.00000000       0.05050605       0.00000000
Au       7.38396256       2.55787966      10.82318415        1      -0.15866319       0.24023625      -0.03204399       0.00000000
Au       2.95358503       5.11575933      10.82318415        1      -0.12871910      -0.25752448      -0.03204399       0.00000000
Au       5.90717005       5.11575933      10.82318415        1       0.12871910      -0.25752448      -0.03204399       0.00000000
Au       8.86075508       5.11575933      10.82318415        1       0.00000000       0.00000000       0.02420366       0.00000000
O        0.00000000       0.00000000      13.97352415        0       0.00000000      -0.00000000       0.47237709       0.00000000
C       -0.00000000      -0.00000000      12.83104202        0       0.00000000      -0.00000000       0.09305534       0.00000000
