29
Lattice="8.860755075048626 0.0 0.0 4.430377537524313 7.673638991703999 0.0 0.0 0.0 16.823184148810135" Properties=species:S:1:pos:R:3:tags:I:1:forces:R:3:magmoms:R:1 energy=-92.93709715778245 dipole="-1.03309543022967 -0.018309688709323056 0.09964930153056692" magmom=0.0 free_energy=-93.09076398735006 pbc="T T F"
Au       1.47679251       0.85262655       6.00000000        3      -0.00376015      -0.03034206      -0.06890710       0.00000000
Au       4.43037754       0.85262655       6.00000000        3       0.03335343       0.01949873      -0.03693561       0.00000000
Au       7.38396256       0.85262655       6.00000000        3      -0.03892787       0.01924904      -0.04804571       0.00000000
Au       2.95358503       3.41050622       6.00000000        3       0.00078526       0.02052858      -0.02704806       0.00000000
Au       5.90717005       3.41050622       6.00000000        3      -0.00232458      -0.02376453      -0.04882408       0.00000000
Au       8.86075508       3.41050622       6.00000000        3      -0.00409529       0.02042856      -0.04310926       0.00000000
Au       4.43037754       5.96838588       6.00000000        3       0.01238329      -0.01075732      -0.05013747       0.00000000
Au       7.38396256       5.96838588       6.00000000        3      -0.01500888      -0.01006286      -0.07028078       0.00000000
Au      10.33754759       5.96838588       6.00000000        3      -0.00269835      -0.01841064      -0.02446954       0.00000000
Au      -0.00000000       1.70525311       8.41159207        2       0.00798806      -0.02432119       0.02873450       0.00000000
Au       2.95358503       1.70525311       8.41159207        2      -0.00585858      -0.03224175       0.01785378       0.00000000
Au       5.90717005       1.70525311       8.41159207        2       0.00313427       0.03121277      -0.01936910       0.00000000
Au       1.47679251       4.26313277       8.41159207        2       0.00133295       0.03096296      -0.02718208       0.00000000
Au       4.43037754       4.26313277       8.41159207        2      -0.00377406      -0.00335626       0.00010220       0.00000000
Au       7.38396256       4.26313277       8.41159207        2       0.00488049      -0.01115196       0.00820293       0.00000000
Au       2.95358503       6.82101244       8.41159207        2       0.04185989       0.00258981       0.04993707       0.00000000
Au       5.90717005       6.82101244       8.41159207        2      -0.00141045       0.00573172      -0.09727441       0.00000000
Au       8.86075508       6.82101244       8.41159207        2      -0.03582197       0.01085435       0.05411215       0.00000000
Au       0.00000000       0.00000000      10.82318415        1      -0.19938523       0.01296301       0.37598618       0.00000000
Au       2.95358503       0.00000000      10.82318415        1       0.19089206       0.02753359       0.37569916       0.00000000
Au       5.90717005       0.00000000      10.82318415        1       0.00442918      -0.00969077       0.06940558       0.00000000
Au       1.47679251       2.55787966      10.82318415        1       0.00084644       0.27931762      -0.05206499       0.00000000
Au       4.43037754       2.55787966      10.82318415        1       0.01129557       0.02618368       0.05043708       0.00000000
Au       7.38396256       2.55787966      10.82318415        1      -0.00914681       0.03815274       0.04848510       0.00000000
Au       2.95358503       5.11575933      10.82318415        1      -0.00165762      -0.01309625       0.03908891       0.00000000
Au       5.90717005       5.11575933      10.82318415        1       0.00290184      -0.32548748      -0.06418490       0.00000000
Au       8.86075508       5.11575933      10.82318415        1       0.00705119      -0.02644170       0.04142918       0.00000000
O        1.47679251       0.00000000      13.97352415        0      -0.00052969       0.00733987      -0.42626802       0.00000000
C        1.47687272      -0.00091904      12.81776989        0       0.00104241      -0.01128170       0.01425548       0.00000000
