29
Lattice="8.860755075048626 0.0 0.0 4.430377537524313 7.673638991703999 0.0 0.0 0.0 16.823184148810135" Properties=species:S:1:pos:R:3:tags:I:1:forces:R:3:magmoms:R:1 energy=-93.24347924568673 dipole="-0.39889747729084574 -0.23030348821132532 0.29890424576959884" magmom=0.0 free_energy=-93.39645197592252 pbc="T T F"
Au       1.47041402       0.84894393       5.98135309        3      -0.00015829      -0.00009139       0.00619525       0.00000000
Au       4.43037754       0.85689450       5.95240156        3       0.00000000      -0.00147373       0.00583785       0.00000000
Au       7.39034106       0.84894393       5.98135309        3       0.00015829      -0.00009139       0.00619525       0.00000000
Au       2.95728118       3.40837224       5.95240156        3      -0.00127629       0.00073687       0.00583785       0.00000000
Au       5.90347390       3.40837224       5.95240156        3       0.00127629       0.00073687       0.00583785       0.00000000
Au       8.86075508       3.40003362       5.97062434        3       0.00000000      -0.00126432       0.00119354       0.00000000
Au       4.43037754       5.97575113       5.98135309        3       0.00000000       0.00018278       0.00619525       0.00000000
Au       7.37489302       5.97362218       5.97062433        3      -0.00109493       0.00063216       0.00119354       0.00000000
Au      10.34661712       5.97362218       5.97062434        3       0.00109493       0.00063216       0.00119354       0.00000000
Au      -0.00000000       1.67926001       8.45916864        2      -0.00000000       0.00369073       0.00018548       0.00000000
Au       2.95903698       1.70840080       8.38247120        2      -0.00368966      -0.00213023       0.00034956       0.00000000
Au       5.90171810       1.70840080       8.38247119        2       0.00368966      -0.00213023       0.00034956       0.00000000
Au       1.47302852       4.26530592       8.35859283        2      -0.00053822       0.00031074      -0.00007221       0.00000000
Au       4.43037754       4.25683740       8.38247119        2       0.00000000       0.00426045       0.00034956       0.00000000
Au       7.38772656       4.26530592       8.35859283        2       0.00053822       0.00031074      -0.00007221       0.00000000
Au       2.97609570       6.83400898       8.45916864        2      -0.00319627      -0.00184537       0.00018548       0.00000000
Au       5.88465937       6.83400898       8.45916864        2       0.00319627      -0.00184537       0.00018548       0.00000000
Au       8.86075508       6.81666615       8.35859283        2       0.00000000      -0.00062149      -0.00007221       0.00000000
Au       0.00000000       0.00000000      10.94455230        1      -0.00000000       0.00000000       0.00167749       0.00000000
Au       2.99597881       0.00519188      10.80012265        1      -0.00318307       0.00376517      -0.00051713       0.00000000
Au       5.86477627       0.00519188      10.80012265        1       0.00318307       0.00376517      -0.00051713       0.00000000
Au       1.50248571       2.59199782      10.80012265        1       0.00166920      -0.00463921      -0.00051713       0.00000000
Au       4.43037754       2.55787966      10.83238296        1       0.00000000       0.00000000      -0.00308656       0.00000000
Au       7.35826937       2.59199781      10.80012265        1      -0.00166920      -0.00463921      -0.00051713       0.00000000
Au       2.93688444       5.07644929      10.80012265        1       0.00485227       0.00087404      -0.00051713       0.00000000
Au       5.92387064       5.07644929      10.80012265        1      -0.00485227       0.00087404      -0.00051713       0.00000000
Au       8.86075508       5.11575933      10.79539694        1       0.00000000       0.00000000       0.00514212       0.00000000
O        0.00000000      -0.00000000      14.14764116        0       0.00000000      -0.00000000       0.00184651       0.00000000
C       -0.00000000      -0.00000000      13.00168396        0       0.00000000       0.00000000       0.00563619       0.00000000
