29
Lattice="8.860755075048626 0.0 0.0 4.430377537524313 7.673638991703999 0.0 0.0 0.0 16.823184148810135" Properties=species:S:1:pos:R:3:tags:I:1:forces:R:3:magmoms:R:1 energy=-93.16197097400301 dipole="-0.10906752257608941 -0.06297016351914751 0.25554519650201346" magmom=0.0 free_energy=-93.31542283656064 pbc="T T F"
Au       1.47679251       0.85262655       6.00000000        3       0.00493025       0.00284648      -0.08447108       0.00000000
Au       4.43037754       0.85262655       6.00000000        3      -0.00000000       0.01664075      -0.03298474       0.00000000
Au       7.38396256       0.85262655       6.00000000        3      -0.00493025       0.00284648      -0.08447108       0.00000000
Au       2.95358503       3.41050622       6.00000000        3       0.01441131      -0.00832038      -0.03298474       0.00000000
Au       5.90717005       3.41050622       6.00000000        3      -0.01441131      -0.00832038      -0.03298474       0.00000000
Au       8.86075508       3.41050622       6.00000000        3       0.00000000       0.03064902      -0.03643632       0.00000000
Au       4.43037754       5.96838588       6.00000000        3       0.00000000      -0.00569296      -0.08447108       0.00000000
Au       7.38396256       5.96838588       6.00000000        3       0.02654283      -0.01532451      -0.03643632       0.00000000
Au      10.33754759       5.96838588       6.00000000        3      -0.02654283      -0.01532451      -0.03643632       0.00000000
Au      -0.00000000       1.70525311       8.41159207        2       0.00000000      -0.10206510       0.09823501       0.00000000
Au       2.95358503       1.70525311       8.41159207        2       0.02556679       0.01476099       0.01421496       0.00000000
Au       5.90717005       1.70525311       8.41159207        2      -0.02556679       0.01476099       0.01421496       0.00000000
Au       1.47679251       4.26313277       8.41159207        2      -0.02238411       0.01292347      -0.01929908       0.00000000
Au       4.43037754       4.26313277       8.41159207        2      -0.00000000      -0.02952199       0.01421496       0.00000000
Au       7.38396256       4.26313277       8.41159207        2       0.02238411       0.01292347      -0.01929908       0.00000000
Au       2.95358503       6.82101244       8.41159207        2       0.08839097       0.05103255       0.09823501       0.00000000
Au       5.90717005       6.82101244       8.41159207        2      -0.08839097       0.05103255       0.09823501       0.00000000
Au       8.86075508       6.82101244       8.41159207        2       0.00000000      -0.02584694      -0.01929908       0.00000000
Au       0.00000000       0.00000000      10.82318415        1       0.00000000       0.00000000      -0.26556703       0.00000000
Au       2.95358503       0.00000000      10.82318415        1       0.28558340       0.01728027      -0.02880391       0.00000000
Au       5.90717005       0.00000000      10.82318415        1      -0.28558340       0.01728027      -0.02880391       0.00000000
Au       1.47679251       2.55787966      10.82318415        1       0.15775685       0.23868235      -0.02880391       0.00000000
Au       4.43037754       2.55787966      10.82318415        1       0.00000000       0.00000000       0.05224144       0.00000000
Au       7.38396256       2.55787966      10.82318415        1      -0.15775685       0.23868235      -0.02880391       0.00000000
Au       2.95358503       5.11575933      10.82318415        1      -0.12782655      -0.25596262      -0.02880391       0.00000000
Au       5.90717005       5.11575933      10.82318415        1       0.12782655      -0.25596262      -0.02880391       0.00000000
Au       8.86075508       5.11575933      10.82318415        1      -0.00000000       0.00000000       0.02598355       0.00000000
O        0.00000000       0.00000000      13.97352415        0       0.00000000       0.00000000       0.56951946       0.00000000
C       -0.00000000      -0.00000000      12.83146106        0      -0.00000000      -0.00000000       0.00445828       0.00000000
