27
Lattice="8.860755075048626 0.0 0.0 4.430377537524313 7.673638991703999 0.0 0.0 0.0 16.823184148810135" Properties=species:S:1:pos:R:3:tags:I:1:magmoms:R:1 energy=-78.84443160046156 dipole="-0.12116686230175766 -0.06995572056682448 -1.4990373087297833e-08" magmom=0.0 free_energy=-78.98203752680251 pbc="T T F"
Au       1.47679251       0.85262655       6.00000000        3       0.00000000
Au       4.43037754       0.85262655       6.00000000        3       0.00000000
Au       7.38396256       0.85262655       6.00000000        3       0.00000000
Au       2.95358503       3.41050622       6.00000000        3       0.00000000
Au       5.90717005       3.41050622       6.00000000        3       0.00000000
Au       8.86075508       3.41050622       6.00000000        3       0.00000000
Au       4.43037754       5.96838588       6.00000000        3       0.00000000
Au       7.38396256       5.96838588       6.00000000        3       0.00000000
Au      10.33754759       5.96838588       6.00000000        3       0.00000000
Au      -0.00000000       1.70525311       8.41159207        2       0.00000000
Au       2.95358503       1.70525311       8.41159207        2       0.00000000
Au       5.90717005       1.70525311       8.41159207        2       0.00000000
Au       1.47679251       4.26313277       8.41159207        2       0.00000000
Au       4.43037754       4.26313277       8.41159207        2       0.00000000
Au       7.38396256       4.26313277       8.41159207        2       0.00000000
Au       2.95358503       6.82101244       8.41159207        2       0.00000000
Au       5.90717005       6.82101244       8.41159207        2       0.00000000
Au       8.86075508       6.82101244       8.41159207        2       0.00000000
Au       0.00000000       0.00000000      10.82318415        1       0.00000000
Au       2.95358503       0.00000000      10.82318415        1       0.00000000
Au       5.90717005       0.00000000      10.82318415        1       0.00000000
Au       1.47679251       2.55787966      10.82318415        1       0.00000000
Au       4.43037754       2.55787966      10.82318415        1       0.00000000
Au       7.38396256       2.55787966      10.82318415        1       0.00000000
Au       2.95358503       5.11575933      10.82318415        1       0.00000000
Au       5.90717005       5.11575933      10.82318415        1       0.00000000
Au       8.86075508       5.11575933      10.82318415        1       0.00000000
