28
Lattice="8.860755075048626 0.0 0.0 4.430377537524313 7.673638991703999 0.0 0.0 0.0 16.823184148810135" Properties=species:S:1:pos:R:3:tags:I:1:forces:R:3:magmoms:R:1 energy=-83.20241735767968 dipole="11.842394031469071 7.52599749174142 -0.22851640467227932" magmom=0.0 free_energy=-83.33128534395853 pbc="T T F"
Au       1.47254038       0.82155604       6.01951676        3      -0.00169844       0.00020241      -0.00068870       0.00000000
Au       4.41207469       0.82291504       6.00483557        3       0.00064260       0.00149499      -0.00042364       0.00000000
Au       7.38988462       0.81755980       6.00602490        3       0.00121146      -0.00045163       0.00046000       0.00000000
Au       2.94388089       3.36571650       6.00460442        3      -0.00025331       0.00153743       0.00007678       0.00000000
Au       5.90254551       3.37895900       5.98742942        3      -0.00112123       0.00020841       0.00047231       0.00000000
Au       8.85875821       3.36957516       6.00400437        3       0.00172784      -0.00070357      -0.00113199       0.00000000
Au       4.42827293       5.94849766       6.00653157        3      -0.00110988       0.00070443      -0.00094418       0.00000000
Au       7.37294571       5.94458776       6.00452578        3      -0.00130222       0.00025121      -0.00260118       0.00000000
Au      10.33428443       5.93673868       6.10562659        3       0.00228294       0.00281841      -0.00394464       0.00000000
Au       0.00967478       1.67058781       8.47512046        2       0.00039549      -0.00055398      -0.00123879       0.00000000
Au       2.94120038       1.66883383       8.47289347        2       0.00060335       0.00125950       0.00296641       0.00000000
Au       5.90658839       1.67038775       8.39248879        2      -0.00180044      -0.00091032       0.00002498       0.00000000
Au       1.47874370       4.18894553       8.44985043        2       0.00098939      -0.00222678       0.00404500       0.00000000
Au       4.42511727       4.23633848       8.39174049        2      -0.00078645      -0.00011462       0.00157272       0.00000000
Au       7.39230752       4.23881030       8.39449616        2      -0.00176636       0.00067204       0.00395643       0.00000000
Au       2.98977475       6.81291004       8.45377612        2      -0.00031827       0.00011094       0.00221135       0.00000000
Au       5.90726510       6.80299111       8.47501620        2      -0.00076931       0.00004778       0.00178578       0.00000000
Au       8.82289819       6.81601690       8.44976030        2      -0.00113341       0.00231892       0.00625314       0.00000000
Au      -0.13717607      -0.10856713      10.93405757        1       0.00246853       0.00218246       0.00060721       0.00000000
Au       3.09373878      -0.11018451      10.93189988        1       0.00848503      -0.00056916      -0.00302854       0.00000000
Au       5.91225437      -0.03018379      10.83188098        1      -0.00218215       0.00073647      -0.00213315       0.00000000
Au       1.47698942       2.69232749      10.93108966        1       0.00267221      -0.00002548      -0.00126187       0.00000000
Au       4.46484059       2.54849268      10.80297620        1      -0.00127710      -0.00329389       0.00174345       0.00000000
Au       7.35548412       2.54994140      10.80659151        1      -0.00353365      -0.00097570       0.00138155       0.00000000
Au       2.95672550       5.09131149      10.83121197        1      -0.00361820      -0.00253053      -0.00066466       0.00000000
Au       5.91141479       5.05057318      10.80747510        1      -0.00033565      -0.00221239      -0.00241713       0.00000000
Au       8.86703576       5.09080276      10.82935738        1       0.00102817      -0.00143432      -0.00129711       0.00000000
O        1.48182132       0.82765463      12.02071951        0      -0.00180755      -0.00123787       0.00284775       0.00000000
