28
Lattice="8.860755075048626 0.0 0.0 4.430377537524313 7.673638991703999 0.0 0.0 0.0 16.823184148810135" Properties=species:S:1:pos:R:3:tags:I:1:forces:R:3:magmoms:R:1 energy=-82.97105437047266 dipole="14.234995572816329 8.218578525793959 -0.25293865335666843" magmom=0.0 free_energy=-83.10242215673259 pbc="T T F"
Au       1.46975576       0.84856388       6.00782566        3      -0.00054343      -0.00031375      -0.00081467       0.00000000
Au       4.42853378       0.85035713       6.01195704        3      -0.00059225      -0.00053896      -0.00112481       0.00000000
Au       7.38257790       0.86839144       6.03024650        3      -0.00046789      -0.00347049       0.00204723       0.00000000
Au       2.95069776       3.41004419       6.01195704        3      -0.00076288      -0.00024342      -0.00112481       0.00000000
Au       5.88404428       3.39715455       5.99455897        3       0.00023565       0.00013605       0.00232424       0.00000000
Au       8.87512777       3.39789866       5.99078069        3      -0.00101451       0.00024503       0.00321932       0.00000000
Au       4.44333799       5.95930428       6.03024650        3      -0.00323948       0.00133004       0.00204723       0.00000000
Au       7.38023044       5.98713679       5.99078069        3      -0.00029505      -0.00100110       0.00321932       0.00000000
Au      10.31982145       5.95815169       6.02930560        3       0.00182792       0.00105535       0.00179912       0.00000000
Au       0.03126588       1.71123307       8.44625004        2      -0.00088211       0.00329195       0.00062089       0.00000000
Au       2.95385099       1.70540666       8.50583722        2       0.00058223       0.00033615      -0.00091003       0.00000000
Au       5.87550102       1.70973732       8.44695420        2       0.00024525       0.00296207       0.00264886       0.00000000
Au       1.48850059       4.23508456       8.44783312        2      -0.00311314      -0.00132855       0.00131156       0.00000000
Au       4.41842646       4.23346449       8.44695420        2       0.00268785      -0.00126865       0.00264886       0.00000000
Au       7.38484497       4.26364223       8.34999819        2       0.00024877       0.00014363       0.00381102       0.00000000
Au       2.95437573       6.82146895       8.39708653        2      -0.00028515      -0.00016463       0.00257543       0.00000000
Au       5.92798179       6.84509950       8.44625004        2       0.00240986      -0.00240990       0.00062089       0.00000000
Au       8.84231865       6.84517604       8.44783312        2      -0.00270713      -0.00203178       0.00131156       0.00000000
Au      -0.02764220      -0.01595923      10.82516464        1      -0.00373469      -0.00215622       0.00139045       0.00000000
Au       2.95731724      -0.14605841      10.99219306        1       0.00091867       0.00495130       0.00394230       0.00000000
Au       5.94466041      -0.01666287      10.83188940        1       0.00430606      -0.00123029       0.00187070       0.00000000
Au       1.35216833       2.63414107      10.99219306        1       0.00474729      -0.00168006       0.00394230       0.00000000
Au       4.56270495       2.63427893      11.00448342        1      -0.00214171      -0.00123652       0.00647980       0.00000000
Au       7.38389298       2.57872655      10.78990136        1       0.00161750      -0.00029269       0.00168032       0.00000000
Au       2.95789974       5.15655836      10.83188940        1       0.00108757       0.00434430       0.00187070       0.00000000
Au       5.92518919       5.10527562      10.78990136        1       0.00055527       0.00154715       0.00168032       0.00000000
Au       8.84848268       5.10867386      10.79082457        1      -0.00070995      -0.00040989       0.00135557       0.00000000
O        2.94878919       1.70248423      12.12492021        0       0.00189636       0.00109486       0.00192751       0.00000000
