28
Lattice="8.860755075048626 0.0 0.0 4.430377537524313 7.673638991703999 0.0 0.0 0.0 16.823184148810135" Properties=species:S:1:pos:R:3:tags:I:1:forces:R:3:magmoms:R:1 energy=-82.74803780872493 dipole="0.2357608743309579 0.1361166042511181 -0.29330462399999907" magmom=0.0 free_energy=-82.88331023441367 pbc="T T F"
Au       1.47679251       0.85262655       6.00000000        3      -0.05694789      -0.03287888      -0.08878166       0.00000000
Au       4.43037754       0.85262655       6.00000000        3       0.04270037      -0.01445108      -0.07979230       0.00000000
Au       7.38396256       0.85262655       6.00000000        3       0.00998547       0.03838938       0.00756122       0.00000000
Au       2.95358503       3.41050622       6.00000000        3       0.00883518       0.04420515      -0.07979230       0.00000000
Au       5.90717005       3.41050622       6.00000000        3      -0.04276758      -0.02469187      -0.03632779       0.00000000
Au       8.86075508       3.41050622       6.00000000        3       0.02412020      -0.02374722      -0.03914658       0.00000000
Au       4.43037754       5.96838588       6.00000000        3       0.03823891      -0.01054702       0.00756122       0.00000000
Au       7.38396256       5.96838588       6.00000000        3      -0.00850560       0.03276232      -0.03914658       0.00000000
Au      10.33754759       5.96838588       6.00000000        3      -0.03376962      -0.01949690      -0.00113633       0.00000000
Au      -0.00000000       1.70525311       8.41159207        2       0.07244000       0.05702143       0.07734914       0.00000000
Au       2.95358503       1.70525311       8.41159207        2       0.00291464       0.00168277      -0.16162632       0.00000000
Au       5.90717005       1.70525311       8.41159207        2      -0.07033982       0.05834467       0.06392851       0.00000000
Au       1.47679251       4.26313277       8.41159207        2      -0.01668047      -0.09273017       0.07763281       0.00000000
Au       4.43037754       4.26313277       8.41159207        2       0.01535806      -0.09008841       0.06392851       0.00000000
Au       7.38396256       4.26313277       8.41159207        2       0.00020457       0.00011811      -0.01730608       0.00000000
Au       2.95358503       6.82101244       8.41159207        2       0.00986871       0.00569770      -0.00264769       0.00000000
Au       5.90717005       6.82101244       8.41159207        2       0.08560201       0.03422417       0.07734914       0.00000000
Au       8.86075508       6.82101244       8.41159207        2      -0.08864691       0.03191937       0.07763281       0.00000000
Au       0.00000000       0.00000000      10.82318415        1      -0.24678398      -0.14248080      -0.03924692       0.00000000
Au       2.95358503       0.00000000      10.82318415        1       0.00441288      -0.76024069       0.12498485       0.00000000
Au       5.90717005       0.00000000      10.82318415        1       0.24621366      -0.13733968      -0.01809747       0.00000000
Au       1.47679251       2.55787966      10.82318415        1      -0.65618131       0.38394201       0.12498485       0.00000000
Au       4.43037754       2.55787966      10.82318415        1       0.66421295       0.38348353       0.12669810       0.00000000
Au       7.38396256       2.55787966      10.82318415        1      -0.01062590       0.06106170      -0.06696895       0.00000000
Au       2.95358503       5.11575933      10.82318415        1       0.00416718       0.28189712      -0.01809747       0.00000000
Au       5.90717005       5.11575933      10.82318415        1       0.04756803      -0.03973315      -0.06696895       0.00000000
Au       8.86075508       5.11575933      10.82318415        1      -0.04584418      -0.02646815      -0.06623898       0.00000000
O        2.94533461       1.70048973      12.19827792        0      -0.00495325      -0.00285976       0.00294299       0.00000000
