28
Lattice="8.860755075048626 0.0 0.0 4.430377537524313 7.673638991703999 0.0 0.0 0.0 16.823184148810135" Properties=species:S:1:pos:R:3:tags:I:1:forces:R:3:magmoms:R:1 energy=-82.97105437123905 dipole="14.2349956328462 8.21857856040236 -0.2529386063388772" magmom=0.0 free_energy=-83.10242215651785 pbc="T T F"
Au       1.46975576       0.84856388       6.00782566        3      -0.00054336      -0.00031371      -0.00081465       0.00000000
Au       4.42853378       0.85035713       6.01195704        3      -0.00059242      -0.00053893      -0.00112480       0.00000000
Au       7.38257790       0.86839144       6.03024650        3      -0.00046797      -0.00347037       0.00204707       0.00000000
Au       2.95069776       3.41004419       6.01195704        3      -0.00076294      -0.00024358      -0.00112480       0.00000000
Au       5.88404428       3.39715455       5.99455897        3       0.00023556       0.00013600       0.00232415       0.00000000
Au       8.87512777       3.39789866       5.99078069        3      -0.00101450       0.00024500       0.00321920       0.00000000
Au       4.44333799       5.95930428       6.03024650        3      -0.00323942       0.00132992       0.00204707       0.00000000
Au       7.38023044       5.98713679       5.99078069        3      -0.00029508      -0.00100108       0.00321920       0.00000000
Au      10.31982145       5.95815169       6.02930560        3       0.00182776       0.00105526       0.00179898       0.00000000
Au       0.03126588       1.71123307       8.44625004        2      -0.00088195       0.00329218       0.00062107       0.00000000
Au       2.95385099       1.70540666       8.50583722        2       0.00058220       0.00033613      -0.00090984       0.00000000
Au       5.87550102       1.70973732       8.44695420        2       0.00024507       0.00296231       0.00264906       0.00000000
Au       1.48850059       4.23508456       8.44783312        2      -0.00311332      -0.00132877       0.00131174       0.00000000
Au       4.41842646       4.23346449       8.44695420        2       0.00268797      -0.00126891       0.00264906       0.00000000
Au       7.38484497       4.26364223       8.34999819        2       0.00024879       0.00014364       0.00381102       0.00000000
Au       2.95437573       6.82146895       8.39708653        2      -0.00028518      -0.00016465       0.00257552       0.00000000
Au       5.92798179       6.84509950       8.44625004        2       0.00241013      -0.00240988       0.00062107       0.00000000
Au       8.84231865       6.84517604       8.44783312        2      -0.00270741      -0.00203183       0.00131174       0.00000000
Au      -0.02764220      -0.01595923      10.82516464        1      -0.00373445      -0.00215608       0.00139023       0.00000000
Au       2.95731724      -0.14605841      10.99219306        1       0.00091873       0.00495139       0.00394213       0.00000000
Au       5.94466041      -0.01666287      10.83188940        1       0.00430602      -0.00123027       0.00187044       0.00000000
Au       1.35216833       2.63414107      10.99219306        1       0.00474739      -0.00168005       0.00394213       0.00000000
Au       4.56270495       2.63427893      11.00448342        1      -0.00214171      -0.00123652       0.00647986       0.00000000
Au       7.38389298       2.57872655      10.78990136        1       0.00161760      -0.00029258       0.00168000       0.00000000
Au       2.95789974       5.15655836      10.83188940        1       0.00108757       0.00434425       0.00187044       0.00000000
Au       5.92518919       5.10527562      10.78990136        1       0.00055542       0.00154717       0.00168000       0.00000000
Au       8.84848268       5.10867386      10.79082457        1      -0.00070996      -0.00040989       0.00135530       0.00000000
O        2.94878919       1.70248423      12.12492021        0       0.00189645       0.00109492       0.00192723       0.00000000
