28
Lattice="8.860755075048626 0.0 0.0 4.430377537524313 7.673638991703999 0.0 0.0 0.0 16.823184148810135" Properties=species:S:1:pos:R:3:tags:I:1:forces:R:3:magmoms:R:1 energy=-81.80182109073907 dipole="0.16029599033128103 0.09254694097887753 -0.6395019554715322" magmom=0.0 free_energy=-81.96568383139146 pbc="T T F"
Au       1.47568773       0.85198871       5.95857277        3       0.00150080       0.00086649      -0.00504636       0.00000000
Au       4.43037754       0.85588419       5.99139450        3       0.00000000       0.00225868      -0.00546408       0.00000000
Au       7.38506735       0.85198871       5.95857277        3      -0.00150080       0.00086649      -0.00504636       0.00000000
Au       2.95640622       3.40887740       5.99139450        3       0.00195608      -0.00112934      -0.00546408       0.00000000
Au       5.90434886       3.40887740       5.99139450        3      -0.00195608      -0.00112934      -0.00546408       0.00000000
Au       8.86075508       3.40182219       6.00505298        3       0.00000000      -0.00156596      -0.00009321       0.00000000
Au       4.43037754       5.96966158       5.95857277        3      -0.00000000      -0.00173297      -0.00504636       0.00000000
Au       7.37644197       5.97272790       6.00505298        3      -0.00135616       0.00078298      -0.00009321       0.00000000
Au      10.34506818       5.97272790       6.00505298        3       0.00135616       0.00078298      -0.00009321       0.00000000
Au      -0.00000000       1.68035029       8.43165602        2       0.00000000       0.00438704       0.00729727       0.00000000
Au       2.94874171       1.70245682       8.40746170        2       0.00152099       0.00087815       0.00028766       0.00000000
Au       5.91201336       1.70245682       8.40746170        2      -0.00152099       0.00087815       0.00028766       0.00000000
Au       1.47378480       4.26486928       8.40788014        2       0.00100337      -0.00057930       0.00300312       0.00000000
Au       4.43037754       4.26872535       8.40746170        2      -0.00000000      -0.00175629       0.00028766       0.00000000
Au       7.38697027       4.26486928       8.40788014        2      -0.00100337      -0.00057930       0.00300312       0.00000000
Au       2.97515150       6.83346385       8.43165602        2      -0.00379929      -0.00219352       0.00729727       0.00000000
Au       5.88560357       6.83346385       8.43165602        2       0.00379929      -0.00219352       0.00729727       0.00000000
Au       8.86075508       6.81753943       8.40788014        2      -0.00000000       0.00115859       0.00300312       0.00000000
Au       0.00000000       0.00000000      10.86092220        1       0.00000000       0.00000000       0.00388356       0.00000000
Au       2.98795066       0.00202869      10.83116561        1       0.00204501       0.00165501      -0.00250894       0.00000000
Au       5.87280442       0.00202869      10.83116561        1      -0.00204501       0.00165501      -0.00250894       0.00000000
Au       1.49573223       2.58662683      10.83116561        1       0.00245579       0.00094353      -0.00250894       0.00000000
Au       4.43037754       2.55787966      10.83192150        1      -0.00000000       0.00000000      -0.00455850       0.00000000
Au       7.36502285       2.58662683      10.83116561        1      -0.00245579       0.00094353      -0.00250894       0.00000000
Au       2.93815911       5.08498347      10.83116561        1       0.00041078      -0.00259854      -0.00250894       0.00000000
Au       5.92259597       5.08498347      10.83116561        1      -0.00041078      -0.00259854      -0.00250894       0.00000000
Au       8.86075508       5.11575933      10.83652345        1       0.00000000       0.00000000      -0.00354513       0.00000000
O       -0.00000000       0.00000000      12.80927962        0       0.00000000       0.00000000       0.00018262       0.00000000
