28
Lattice="8.860755075048626 0.0 0.0 4.430377537524313 7.673638991703999 0.0 0.0 0.0 16.823184148810135" Properties=species:S:1:pos:R:3:tags:I:1:forces:R:3:magmoms:R:1 energy=-82.88359449420578 dipole="-1.1416517634200507 -0.6591329529978551 -0.2650133055564203" magmom=0.0 free_energy=-83.01459820156524 pbc="T T F"
Au       1.47679251       0.85262655       6.00000000        3       0.00116490       0.00067255      -0.08973530       0.00000000
Au       4.43037754       0.85262655       6.00000000        3      -0.02507229       0.00863343      -0.05996777       0.00000000
Au       7.38396256       0.85262655       6.00000000        3       0.01761645      -0.02555288      -0.05964661       0.00000000
Au       2.95358503       3.41050622       6.00000000        3      -0.00505937      -0.02602996      -0.05996777       0.00000000
Au       5.90717005       3.41050622       6.00000000        3      -0.00722171      -0.00416945       0.00311894       0.00000000
Au       8.86075508       3.41050622       6.00000000        3       0.00435538      -0.00784690      -0.06258242       0.00000000
Au       4.43037754       5.96838588       6.00000000        3      -0.01332121       0.02803273      -0.05964661       0.00000000
Au       7.38396256       5.96838588       6.00000000        3      -0.00461792       0.00769532      -0.06258242       0.00000000
Au      10.33754759       5.96838588       6.00000000        3       0.01313116       0.00758128       0.11326720       0.00000000
Au      -0.00000000       1.70525311       8.41159207        2      -0.02901651       0.02607502      -0.02591809       0.00000000
Au       2.95358503       1.70525311       8.41159207        2       0.03403844       0.01965210      -0.04367317       0.00000000
Au       5.90717005       1.70525311       8.41159207        2      -0.00606835      -0.01196724       0.01920625       0.00000000
Au       1.47679251       4.26313277       8.41159207        2       0.00550194      -0.24279728       0.19905668       0.00000000
Au       4.43037754       4.26313277       8.41159207        2      -0.01339811       0.00072828       0.01920625       0.00000000
Au       7.38396256       4.26313277       8.41159207        2       0.01625853       0.00938687       0.02982106       0.00000000
Au       2.95358503       6.82101244       8.41159207        2       0.20130077       0.11622106       0.20292787       0.00000000
Au       5.90717005       6.82101244       8.41159207        2       0.00807337      -0.03816654      -0.02591809       0.00000000
Au       8.86075508       6.82101244       8.41159207        2      -0.20751765       0.12616346       0.19905668       0.00000000
Au       0.00000000       0.00000000      10.82318415        1      -0.93975960      -0.54257046       0.02936852       0.00000000
Au       2.95358503       0.00000000      10.82318415        1       0.92324637      -0.54315371       0.03571875       0.00000000
Au       5.90717005       0.00000000      10.82318415        1       0.01598552       0.00425793      -0.04680496       0.00000000
Au       1.47679251       2.55787966      10.82318415        1      -0.00876173       1.07113167       0.03571875       0.00000000
Au       4.43037754       2.55787966      10.82318415        1       0.24081378       0.13903390      -0.05574938       0.00000000
Au       7.38396256       2.55787966      10.82318415        1      -0.22989976       0.13490294      -0.05095031       0.00000000
Au       2.95358503       5.11575933      10.82318415        1       0.01168023       0.01171490      -0.04680496       0.00000000
Au       5.90717005       5.11575933      10.82318415        1       0.00187949      -0.26655050      -0.05095031       0.00000000
Au       8.86075508       5.11575933      10.82318415        1      -0.00809929      -0.00467612      -0.04427302       0.00000000
O        1.47929817       0.85407320      12.17243080        0      -0.00116366      -0.00067184      -0.00460932       0.00000000
