28
Lattice="8.860755075048626 0.0 0.0 4.430377537524313 7.673638991703999 0.0 0.0 0.0 16.823184148810135" Properties=species:S:1:pos:R:3:tags:I:1:forces:R:3:magmoms:R:1 energy=-83.20242634325531 dipole="12.016522014883732 6.9377422196819705 -0.22786682009228848" magmom=0.0 free_energy=-83.33130729001311 pbc="T T F"
Au       1.47379943       0.85089850       6.02061722        3      -0.00148980      -0.00086014       0.00169526       0.00000000
Au       4.41338922       0.85266209       6.00623286        3       0.00009425       0.00016217       0.00179430       0.00000000
Au       7.39174123       0.84727264       6.00759061        3      -0.00005977      -0.00177427       0.00104367       0.00000000
Au       2.94512164       3.39577613       6.00623286        3       0.00018756       0.00000054       0.00179430       0.00000000
Au       5.90397376       3.40866084       5.98981912        3      -0.00139160      -0.00080344      -0.00089395       0.00000000
Au       8.86055313       3.39954821       6.00526923        3      -0.00032303      -0.00231860       0.00029608       0.00000000
Au       4.42963024       5.97779936       6.00759061        3      -0.00156645       0.00083537       0.00104367       0.00000000
Au       7.37437168       5.97369000       6.00526923        3      -0.00216949       0.00087955       0.00029608       0.00000000
Au      10.33591406       5.96744276       6.10614006        3       0.00226897       0.00130999       0.00090755       0.00000000
Au       0.00975425       1.70008506       8.47689818        2       0.00256820       0.00029349       0.00006018       0.00000000
Au       2.94136807       1.69819965       8.47522870        2      -0.00014890      -0.00008597       0.00202999       0.00000000
Au       5.90629171       1.69947032       8.39447526        2      -0.00262182       0.00032178      -0.00145975       0.00000000
Au       1.47876140       4.21829125       8.45191372        2       0.00078158      -0.00168212       0.00204858       0.00000000
Au       4.42493033       4.26526351       8.39447526        2      -0.00103224      -0.00243145      -0.00145975       0.00000000
Au       7.39233390       4.26796597       8.39693601        2      -0.00047399      -0.00027366       0.00242808       0.00000000
Au       2.99014555       6.84212067       8.45570131        2      -0.00013676      -0.00007896      -0.00532347       0.00000000
Au       5.90757151       6.83204389       8.47689818        2       0.00153827       0.00207738       0.00006018       0.00000000
Au       8.82290562       6.84513830       8.45191372        2      -0.00106596       0.00151793       0.00204858       0.00000000
Au      -0.13635294      -0.07872341      10.93512063        1       0.00236098       0.00136311      -0.00264334       0.00000000
Au       3.09522381      -0.08167570      10.93366606        1       0.00065540       0.00272788      -0.00322017       0.00000000
Au       5.91271336      -0.00096277      10.83307472        1      -0.00334996      -0.00087868      -0.00137342       0.00000000
Au       1.47687867       2.72138030      10.93366606        1       0.00269012      -0.00079635      -0.00322017       0.00000000
Au       4.46398249       2.57728149      10.80638950        1      -0.00097281      -0.00056165      -0.00362922       0.00000000
Au       7.35421061       2.57866796      10.80919963        1      -0.00055627       0.00375428      -0.00303208       0.00000000
Au       2.95552290       5.12104136      10.83307472        1      -0.00243594      -0.00246181      -0.00137342       0.00000000
Au       5.91029727       5.07959923      10.80919963        1       0.00297317      -0.00235889      -0.00303208       0.00000000
Au       8.86631774       5.11897093      10.83130201        1       0.00111788       0.00064541      -0.00354340       0.00000000
O        1.48313839       0.85629035      12.02221858        0       0.00466115       0.00269111       0.00230538       0.00000000
