28
Lattice="8.860755075048626 0.0 0.0 4.430377537524313 7.673638991703999 0.0 0.0 0.0 16.823184148810135" Properties=species:S:1:pos:R:3:tags:I:1:forces:R:3:magmoms:R:1 energy=-82.88360771559329 dipole="-1.1374657644859423 -0.6610253117068651 -0.2649628553097986" magmom=0.0 free_energy=-83.01459885154775 pbc="T T F"
Au       1.47679251       0.85262655       6.00000000        3       0.00137079       0.00178453      -0.08977869       0.00000000
Au       4.43037754       0.85262655       6.00000000        3      -0.02518293       0.00892809      -0.06125810       0.00000000
Au       7.38396256       0.85262655       6.00000000        3       0.01757011      -0.02492158      -0.05907609       0.00000000
Au       2.95358503       3.41050622       6.00000000        3      -0.00567595      -0.02650332      -0.05958813       0.00000000
Au       5.90717005       3.41050622       6.00000000        3      -0.00704108      -0.00466035       0.00283117       0.00000000
Au       8.86075508       3.41050622       6.00000000        3       0.00475613      -0.00798815      -0.06170705       0.00000000
Au       4.43037754       5.96838588       6.00000000        3      -0.01359421       0.02780596      -0.05970016       0.00000000
Au       7.38396256       5.96838588       6.00000000        3      -0.00394621       0.00744486      -0.06398213       0.00000000
Au      10.33754759       5.96838588       6.00000000        3       0.01267389       0.00712536       0.11309239       0.00000000
Au      -0.00000000       1.70525311       8.41159207        2      -0.02928937       0.02733644      -0.02696071       0.00000000
Au       2.95358503       1.70525311       8.41159207        2       0.03310780       0.02135995      -0.04337008       0.00000000
Au       5.90717005       1.70525311       8.41159207        2      -0.00491075      -0.01112499       0.01921129       0.00000000
Au       1.47679251       4.26313277       8.41159207        2       0.00610808      -0.24361106       0.19901712       0.00000000
Au       4.43037754       4.26313277       8.41159207        2      -0.01502918       0.00048279       0.02002879       0.00000000
Au       7.38396256       4.26313277       8.41159207        2       0.01720108       0.00742222       0.02995219       0.00000000
Au       2.95358503       6.82101244       8.41159207        2       0.20158975       0.11556825       0.20378205       0.00000000
Au       5.90717005       6.82101244       8.41159207        2       0.00711866      -0.03773326      -0.02565016       0.00000000
Au       8.86075508       6.82101244       8.41159207        2      -0.20706436       0.12577659       0.19945997       0.00000000
Au       0.00000000       0.00000000      10.82318415        1      -0.94090126      -0.54384524       0.02877034       0.00000000
Au       2.95358503       0.00000000      10.82318415        1       0.92970984      -0.54519606       0.03438987       0.00000000
Au       5.90717005       0.00000000      10.82318415        1       0.01529923       0.00401080      -0.04595235       0.00000000
Au       1.47679251       2.55787966      10.82318415        1      -0.00666303       1.07295351       0.03568317       0.00000000
Au       4.43037754       2.55787966      10.82318415        1       0.23965532       0.13931656      -0.05444251       0.00000000
Au       7.38396256       2.55787966      10.82318415        1      -0.23090592       0.13581178      -0.05098548       0.00000000
Au       2.95358503       5.11575933      10.82318415        1       0.01174400       0.01076591      -0.04627692       0.00000000
Au       5.90717005       5.11575933      10.82318415        1       0.00134028      -0.26740595      -0.05008762       0.00000000
Au       8.86075508       5.11575933      10.82318415        1      -0.00769682      -0.00458096      -0.04351056       0.00000000
O        1.48026432       0.85362963      12.17207889        0      -0.00470057       0.00730527       0.00324968       0.00000000
