28
Lattice="8.860755075048626 0.0 0.0 4.430377537524313 7.673638991703999 0.0 0.0 0.0 16.823184148810135" Properties=species:S:1:pos:R:3:tags:I:1:forces:R:3:magmoms:R:1 energy=-83.20246220578714 dipole="11.814061680152063 7.368319464839421 -0.22814893892382718" magmom=0.0 free_energy=-83.3313174317908 pbc="T T F"
Au       1.47223467       0.82037380       6.01914984        3      -0.00211822       0.00221030       0.00001569       0.00000000
Au       4.41175257       0.82223470       6.00504410        3       0.00177153      -0.00114733       0.00059809       0.00000000
Au       7.39022895       0.81664679       6.00632176        3      -0.00019253      -0.00302831      -0.00284108       0.00000000
Au       2.94335432       3.36545557       6.00510488        3      -0.00103342       0.00088483       0.00410629       0.00000000
Au       5.90239109       3.37837395       5.98827940        3      -0.00139729       0.00067305      -0.00017399       0.00000000
Au       8.85925782       3.36903437       6.00389785        3       0.00137634      -0.00216988       0.00256290       0.00000000
Au       4.42782750       5.94764443       6.00625147        3      -0.00222835      -0.00042821      -0.00273438       0.00000000
Au       7.37274988       5.94353682       6.00367474        3      -0.00100151      -0.00068041      -0.00079794       0.00000000
Au      10.33429908       5.93724594       6.10480776        3       0.00218285       0.00165194       0.00031743       0.00000000
Au       0.00921171       1.67020761       8.47499316        2       0.00302105       0.00164725      -0.00151143       0.00000000
Au       2.94096823       1.66857137       8.47353457        2      -0.00280868       0.00048559      -0.00114039       0.00000000
Au       5.90564504       1.66980355       8.39244920        2      -0.00332254      -0.00016956      -0.00070332       0.00000000
Au       1.47829811       4.18855477       8.45040171        2      -0.00045427      -0.00200432      -0.00569722       0.00000000
Au       4.42431635       4.23573677       8.39233014        2      -0.00170487      -0.00189369      -0.00356481       0.00000000
Au       7.39182098       4.23853682       8.39517219        2      -0.00059947       0.00045923      -0.00036550       0.00000000
Au       2.98950919       6.81239121       8.45389578        2      -0.00080428       0.00054996      -0.00298457       0.00000000
Au       5.90690311       6.80259627       8.47496350        2       0.00139444       0.00062733       0.00339808       0.00000000
Au       8.82214619       6.81566140       8.45047852        2      -0.00068295       0.00073572      -0.00148043       0.00000000
Au      -0.13699698      -0.10765532      10.93409178        1       0.00310843       0.00228252       0.00024939       0.00000000
Au       3.09493343      -0.10955941      10.93189330        1      -0.00033330       0.00111114      -0.00155011       0.00000000
Au       5.91241208      -0.02935750      10.83111107        1       0.00005005       0.00316386       0.00253524       0.00000000
Au       1.47732622       2.69210037      10.93131220        1       0.00036531      -0.00305896       0.00360382       0.00000000
Au       4.46397373       2.54870875      10.80425990        1      -0.00078223      -0.00424798       0.00341288       0.00000000
Au       7.35424305       2.55045511      10.80711479        1      -0.00116168      -0.00004109       0.00360761       0.00000000
Au       2.95550357       5.09206263      10.83150888        1       0.00067408      -0.00001017       0.00300665       0.00000000
Au       5.91061173       5.05107467      10.80706125        1       0.00261820       0.00077140       0.00149554       0.00000000
Au       8.86651046       5.09044684      10.82937614        1      -0.00441486      -0.00207019       0.00220955       0.00000000
O        1.48233651       0.82778344      12.02119037        0       0.00134335       0.00172783      -0.00296197       0.00000000
