28
Lattice="8.860755075048626 0.0 0.0 4.430377537524313 7.673638991703999 0.0 0.0 0.0 16.823184148810135" Properties=species:S:1:pos:R:3:tags:I:1:forces:R:3:magmoms:R:1 energy=-83.20242634320698 dipole="12.016521999391236 6.937742212092697 -0.2278668199255266" magmom=0.0 free_energy=-83.33130728997436 pbc="T T F"
Au       1.47379943       0.85089850       6.02061722        3      -0.00148981      -0.00086014       0.00169527       0.00000000
Au       4.41338922       0.85266209       6.00623286        3       0.00009425       0.00016217       0.00179430       0.00000000
Au       7.39174123       0.84727264       6.00759061        3      -0.00005977      -0.00177428       0.00104367       0.00000000
Au       2.94512164       3.39577613       6.00623286        3       0.00018757       0.00000054       0.00179430       0.00000000
Au       5.90397376       3.40866084       5.98981912        3      -0.00139160      -0.00080344      -0.00089396       0.00000000
Au       8.86055313       3.39954821       6.00526923        3      -0.00032304      -0.00231861       0.00029608       0.00000000
Au       4.42963024       5.97779936       6.00759061        3      -0.00156645       0.00083538       0.00104367       0.00000000
Au       7.37437167       5.97369000       6.00526923        3      -0.00216949       0.00087954       0.00029608       0.00000000
Au      10.33591406       5.96744276       6.10614006        3       0.00226898       0.00131000       0.00090755       0.00000000
Au       0.00975425       1.70008506       8.47689818        2       0.00256821       0.00029349       0.00006018       0.00000000
Au       2.94136807       1.69819965       8.47522870        2      -0.00014890      -0.00008597       0.00203000       0.00000000
Au       5.90629171       1.69947032       8.39447526        2      -0.00262182       0.00032179      -0.00145976       0.00000000
Au       1.47876140       4.21829126       8.45191372        2       0.00078158      -0.00168212       0.00204859       0.00000000
Au       4.42493033       4.26526351       8.39447526        2      -0.00103223      -0.00243146      -0.00145976       0.00000000
Au       7.39233390       4.26796597       8.39693601        2      -0.00047399      -0.00027366       0.00242809       0.00000000
Au       2.99014555       6.84212067       8.45570131        2      -0.00013676      -0.00007896      -0.00532348       0.00000000
Au       5.90757151       6.83204389       8.47689818        2       0.00153828       0.00207739       0.00006018       0.00000000
Au       8.82290562       6.84513830       8.45191372        2      -0.00106597       0.00151793       0.00204859       0.00000000
Au      -0.13635294      -0.07872341      10.93512063        1       0.00236099       0.00136312      -0.00264334       0.00000000
Au       3.09522381      -0.08167570      10.93366605        1       0.00065541       0.00272788      -0.00322017       0.00000000
Au       5.91271336      -0.00096277      10.83307472        1      -0.00334998      -0.00087868      -0.00137341       0.00000000
Au       1.47687867       2.72138030      10.93366605        1       0.00269012      -0.00079634      -0.00322017       0.00000000
Au       4.46398249       2.57728149      10.80638950        1      -0.00097283      -0.00056166      -0.00362922       0.00000000
Au       7.35421061       2.57866796      10.80919963        1      -0.00055626       0.00375430      -0.00303208       0.00000000
Au       2.95552290       5.12104136      10.83307472        1      -0.00243595      -0.00246183      -0.00137341       0.00000000
Au       5.91029727       5.07959923      10.80919963        1       0.00297319      -0.00235889      -0.00303208       0.00000000
Au       8.86631774       5.11897093      10.83130201        1       0.00111788       0.00064541      -0.00354340       0.00000000
O        1.48313839       0.85629035      12.02221858        0       0.00466115       0.00269112       0.00230537       0.00000000
