28
Lattice="8.860755075048626 0.0 0.0 4.430377537524313 7.673638991703999 0.0 0.0 0.0 16.823184148810135" Properties=species:S:1:pos:R:3:tags:I:1:forces:R:3:magmoms:R:1 energy=-81.76394340615386 dipole="-0.10190121363714326 -0.058832693124160555 -0.6303071029638775" magmom=0.0 free_energy=-81.9278509635397 pbc="T T F"
Au       1.47679251       0.85262655       6.00000000        3       0.00948997       0.00547904      -0.11038240       0.00000000
Au       4.43037754       0.85262655       6.00000000        3       0.00000000       0.01122300      -0.02799365       0.00000000
Au       7.38396256       0.85262655       6.00000000        3      -0.00948997       0.00547904      -0.11038240       0.00000000
Au       2.95358503       3.41050622       6.00000000        3       0.00971940      -0.00561150      -0.02799365       0.00000000
Au       5.90717005       3.41050622       6.00000000        3      -0.00971940      -0.00561150      -0.02799365       0.00000000
Au       8.86075508       3.41050622       6.00000000        3       0.00000000       0.00301582      -0.02208315       0.00000000
Au       4.43037754       5.96838588       6.00000000        3      -0.00000000      -0.01095808      -0.11038240       0.00000000
Au       7.38396256       5.96838588       6.00000000        3       0.00261178      -0.00150791      -0.02208315       0.00000000
Au      10.33754759       5.96838588       6.00000000        3      -0.00261178      -0.00150791      -0.02208315       0.00000000
Au      -0.00000000       1.70525311       8.41159207        2      -0.00000000      -0.13655928       0.04313779       0.00000000
Au       2.95358503       1.70525311       8.41159207        2      -0.00666554      -0.00384835       0.01572727       0.00000000
Au       5.90717005       1.70525311       8.41159207        2       0.00666554      -0.00384835       0.01572727       0.00000000
Au       1.47679251       4.26313277       8.41159207        2      -0.00933555       0.00538988       0.02776536       0.00000000
Au       4.43037754       4.26313277       8.41159207        2      -0.00000000       0.00769670       0.01572727       0.00000000
Au       7.38396256       4.26313277       8.41159207        2       0.00933555       0.00538988       0.02776536       0.00000000
Au       2.95358503       6.82101244       8.41159207        2       0.11826380       0.06827964       0.04313779       0.00000000
Au       5.90717005       6.82101244       8.41159207        2      -0.11826380       0.06827964       0.04313779       0.00000000
Au       8.86075508       6.82101244       8.41159207        2      -0.00000000      -0.01077977       0.02776536       0.00000000
Au       0.00000000       0.00000000      10.82318415        1      -0.00000000       0.00000000       0.12008663       0.00000000
Au       2.95358503       0.00000000      10.82318415        1       0.21596652       0.00963952       0.01655423       0.00000000
Au       5.90717005       0.00000000      10.82318415        1      -0.21596652       0.00963952       0.01655423       0.00000000
Au       1.47679251       2.55787966      10.82318415        1       0.11633133       0.18221274       0.01655423       0.00000000
Au       4.43037754       2.55787966      10.82318415        1       0.00000000       0.00000000       0.02970341       0.00000000
Au       7.38396256       2.55787966      10.82318415        1      -0.11633133       0.18221274       0.01655423       0.00000000
Au       2.95358503       5.11575933      10.82318415        1      -0.09963519      -0.19185226       0.01655423       0.00000000
Au       5.90717005       5.11575933      10.82318415        1       0.09963519      -0.19185226       0.01655423       0.00000000
Au       8.86075508       5.11575933      10.82318415        1       0.00000000       0.00000000       0.01330270       0.00000000
O        0.00000000       0.00000000      12.78120421        0       0.00000000       0.00000000      -0.05180514       0.00000000
