28
Lattice="8.860755075048626 0.0 0.0 4.430377537524313 7.673638991703999 0.0 0.0 0.0 16.823184148810135" Properties=species:S:1:pos:R:3:tags:I:1:forces:R:3:magmoms:R:1 energy=-82.88318645360631 dipole="-1.1382335381353568 -0.6971331748205957 -0.25965206619646414" magmom=0.0 free_energy=-83.01410893911304 pbc="T T F"
Au       1.47679251       0.85262655       6.00000000        3       0.00243038       0.00055890      -0.09001677       0.00000000
Au       4.43037754       0.85262655       6.00000000        3      -0.02532323       0.00761791      -0.06054298       0.00000000
Au       7.38396256       0.85262655       6.00000000        3       0.01665810      -0.02619222      -0.06042319       0.00000000
Au       2.95358503       3.41050622       6.00000000        3      -0.00439265      -0.02615668      -0.06058484       0.00000000
Au       5.90717005       3.41050622       6.00000000        3      -0.00752420      -0.00391978       0.00205491       0.00000000
Au       8.86075508       3.41050622       6.00000000        3       0.00398564      -0.00699599      -0.06336744       0.00000000
Au       4.43037754       5.96838588       6.00000000        3      -0.01368188       0.02747155      -0.06078774       0.00000000
Au       7.38396256       5.96838588       6.00000000        3      -0.00364751       0.00812563      -0.06348343       0.00000000
Au      10.33754759       5.96838588       6.00000000        3       0.01238149       0.00879985       0.11173700       0.00000000
Au      -0.00000000       1.70525311       8.41159207        2      -0.02875926       0.02895975      -0.02771618       0.00000000
Au       2.95358503       1.70525311       8.41159207        2       0.03488001       0.02216584      -0.04568068       0.00000000
Au       5.90717005       1.70525311       8.41159207        2      -0.00734426      -0.01238554       0.01863882       0.00000000
Au       1.47679251       4.26313277       8.41159207        2       0.00546199      -0.24552550       0.20170176       0.00000000
Au       4.43037754       4.26313277       8.41159207        2      -0.01464223      -0.00036125       0.01859375       0.00000000
Au       7.38396256       4.26313277       8.41159207        2       0.01753712       0.00957174       0.02925309       0.00000000
Au       2.95358503       6.82101244       8.41159207        2       0.20217463       0.11728492       0.20370590       0.00000000
Au       5.90717005       6.82101244       8.41159207        2       0.00903751      -0.03995715      -0.03046504       0.00000000
Au       8.86075508       6.82101244       8.41159207        2      -0.20985193       0.12802586       0.19933768       0.00000000
Au       0.00000000       0.00000000      10.82318415        1      -0.98272977      -0.56734388       0.00399426       0.00000000
Au       2.95358503       0.00000000      10.82318415        1       0.97529357      -0.57278999       0.00436690       0.00000000
Au       5.90717005       0.00000000      10.82318415        1       0.01589561       0.00433764      -0.04779656       0.00000000
Au       1.47679251       2.55787966      10.82318415        1      -0.00771428       1.09168596       0.02784096       0.00000000
Au       4.43037754       2.55787966      10.82318415        1       0.24085760       0.14132953      -0.05720584       0.00000000
Au       7.38396256       2.55787966      10.82318415        1      -0.23057372       0.13760334      -0.05237430       0.00000000
Au       2.95358503       5.11575933      10.82318415        1       0.00878433       0.00724054      -0.04591061       0.00000000
Au       5.90717005       5.11575933      10.82318415        1       0.00200379      -0.26911837      -0.04986484       0.00000000
Au       8.86075508       5.11575933      10.82318415        1      -0.00519523      -0.00905338      -0.04385381       0.00000000
O        1.48111922       0.84644710      12.16390728        0      -0.00637180       0.03790890       0.08232837       0.00000000
