28
Lattice="8.860755075048626 0.0 0.0 4.430377537524313 7.673638991703999 0.0 0.0 0.0 16.823184148810135" Properties=species:S:1:pos:R:3:tags:I:1:forces:R:3:magmoms:R:1 energy=-82.74794119093704 dipole="0.23538413867948563 0.13589909582955648 -0.29440689731332104" magmom=0.0 free_energy=-82.8832925722733 pbc="T T F"
Au       1.47679251       0.85262655       6.00000000        3      -0.05711303      -0.03297423      -0.08684722       0.00000000
Au       4.43037754       0.85262655       6.00000000        3       0.04145467      -0.01531834      -0.07794464       0.00000000
Au       7.38396256       0.85262655       6.00000000        3       0.01130893       0.03779685       0.00774567       0.00000000
Au       2.95358503       3.41050622       6.00000000        3       0.00746126       0.04355996      -0.07794464       0.00000000
Au       5.90717005       3.41050622       6.00000000        3      -0.04216118      -0.02434177      -0.03564289       0.00000000
Au       8.86075508       3.41050622       6.00000000        3       0.02495312      -0.02415773      -0.03850094       0.00000000
Au       4.43037754       5.96838588       6.00000000        3       0.03838750      -0.00910461       0.00774567       0.00000000
Au       7.38396256       5.96838588       6.00000000        3      -0.00844465       0.03368890      -0.03850094       0.00000000
Au      10.33754759       5.96838588       6.00000000        3      -0.03392587      -0.01958711      -0.00046892       0.00000000
Au      -0.00000000       1.70525311       8.41159207        2       0.07521593       0.05786332       0.07791244       0.00000000
Au       2.95358503       1.70525311       8.41159207        2       0.00238585       0.00137747      -0.16947235       0.00000000
Au       5.90717005       1.70525311       8.41159207        2      -0.07270803       0.06050556       0.06654919       0.00000000
Au       1.47679251       4.26313277       8.41159207        2      -0.01672362      -0.09375369       0.07668868       0.00000000
Au       4.43037754       4.26313277       8.41159207        2       0.01604534      -0.09321978       0.06654919       0.00000000
Au       7.38396256       4.26313277       8.41159207        2      -0.00000867      -0.00000500      -0.01695636       0.00000000
Au       2.95358503       6.82101244       8.41159207        2       0.00925083       0.00534097      -0.00305234       0.00000000
Au       5.90717005       6.82101244       8.41159207        2       0.08771907       0.03620725       0.07791244       0.00000000
Au       8.86075508       6.82101244       8.41159207        2      -0.08955489       0.03239376       0.07668868       0.00000000
Au       0.00000000       0.00000000      10.82318415        1      -0.24372782      -0.14071632      -0.03645373       0.00000000
Au       2.95358503       0.00000000      10.82318415        1      -0.00126378      -0.75824406       0.13459236       0.00000000
Au       5.90717005       0.00000000      10.82318415        1       0.24944096      -0.13934751      -0.01927283       0.00000000
Au       1.47679251       2.55787966      10.82318415        1      -0.65729050       0.37802756       0.13459236       0.00000000
Au       4.43037754       2.55787966      10.82318415        1       0.67036597       0.38703598       0.13052586       0.00000000
Au       7.38396256       2.55787966      10.82318415        1      -0.00880883       0.06177866      -0.06584009       0.00000000
Au       2.95358503       5.11575933      10.82318415        1       0.00404200       0.28569596      -0.01927283       0.00000000
Au       5.90717005       5.11575933      10.82318415        1       0.04909748      -0.03851800      -0.06584009       0.00000000
Au       8.86075508       5.11575933      10.82318415        1      -0.04702059      -0.02714735      -0.06455719       0.00000000
O        2.94840504       1.70226244      12.19973459        0      -0.00814270      -0.00470119      -0.01170617       0.00000000
