28
Lattice="8.860755075048626 0.0 0.0 4.430377537524313 7.673638991703999 0.0 0.0 0.0 16.823184148810135" Properties=species:S:1:pos:R:3:tags:I:1:forces:R:3:magmoms:R:1 energy=-81.76417179532592 dipole="-0.10208608430394456 -0.05893942825342726 -0.6288067208013622" magmom=0.0 free_energy=-81.92787724963195 pbc="T T F"
Au       1.47679251       0.85262655       6.00000000        3       0.00974392       0.00562566      -0.10928123       0.00000000
Au       4.43037754       0.85262655       6.00000000        3       0.00000000       0.01125807      -0.02722906       0.00000000
Au       7.38396256       0.85262655       6.00000000        3      -0.00974392       0.00562566      -0.10928123       0.00000000
Au       2.95358503       3.41050622       6.00000000        3       0.00974977      -0.00562903      -0.02722906       0.00000000
Au       5.90717005       3.41050622       6.00000000        3      -0.00974977      -0.00562903      -0.02722906       0.00000000
Au       8.86075508       3.41050622       6.00000000        3       0.00000000       0.00321439      -0.02137136       0.00000000
Au       4.43037754       5.96838588       6.00000000        3      -0.00000000      -0.01125131      -0.10928123       0.00000000
Au       7.38396256       5.96838588       6.00000000        3       0.00278374      -0.00160720      -0.02137136       0.00000000
Au      10.33754759       5.96838588       6.00000000        3      -0.00278374      -0.00160720      -0.02137136       0.00000000
Au      -0.00000000       1.70525311       8.41159207        2       0.00000000      -0.13245018       0.03968003       0.00000000
Au       2.95358503       1.70525311       8.41159207        2      -0.00548627      -0.00316750       0.01750468       0.00000000
Au       5.90717005       1.70525311       8.41159207        2       0.00548627      -0.00316750       0.01750468       0.00000000
Au       1.47679251       4.26313277       8.41159207        2      -0.00933983       0.00539236       0.03004686       0.00000000
Au       4.43037754       4.26313277       8.41159207        2       0.00000000       0.00633500       0.01750468       0.00000000
Au       7.38396256       4.26313277       8.41159207        2       0.00933983       0.00539236       0.03004686       0.00000000
Au       2.95358503       6.82101244       8.41159207        2       0.11470522       0.06622509       0.03968003       0.00000000
Au       5.90717005       6.82101244       8.41159207        2      -0.11470522       0.06622509       0.03968003       0.00000000
Au       8.86075508       6.82101244       8.41159207        2       0.00000000      -0.01078471       0.03004686       0.00000000
Au       0.00000000       0.00000000      10.82318415        1       0.00000000       0.00000000       0.06874092       0.00000000
Au       2.95358503       0.00000000      10.82318415        1       0.21683285       0.00976718       0.01687977       0.00000000
Au       5.90717005       0.00000000      10.82318415        1      -0.21683285       0.00976718       0.01687977       0.00000000
Au       1.47679251       2.55787966      10.82318415        1       0.11687506       0.18289917       0.01687977       0.00000000
Au       4.43037754       2.55787966      10.82318415        1       0.00000000       0.00000000       0.02783940       0.00000000
Au       7.38396256       2.55787966      10.82318415        1      -0.11687506       0.18289917       0.01687977       0.00000000
Au       2.95358503       5.11575933      10.82318415        1      -0.09995780      -0.19266635       0.01687977       0.00000000
Au       5.90717005       5.11575933      10.82318415        1       0.09995780      -0.19266635       0.01687977       0.00000000
Au       8.86075508       5.11575933      10.82318415        1      -0.00000000       0.00000000       0.01125847       0.00000000
O        0.00000000       0.00000000      12.77852495        0       0.00000000      -0.00000000      -0.00152060       0.00000000
