28
Lattice="8.860755075048626 0.0 0.0 4.430377537524313 7.673638991703999 0.0 0.0 0.0 16.823184148810135" Properties=species:S:1:pos:R:3:tags:I:1:forces:R:3:magmoms:R:1 energy=-81.8018356973966 dipole="0.18565081554874072 0.10718555488680596 -0.6397052396239185" magmom=0.0 free_energy=-81.96566841171835 pbc="T T F"
Au       1.47519953       0.85170685       5.95992984        3       0.00007419       0.00004283       0.00070013       0.00000000
Au       4.43037754       0.85521159       5.99216510        3       0.00000000       0.00056102      -0.00062854       0.00000000
Au       7.38555555       0.85170685       5.95992984        3      -0.00007419       0.00004283       0.00070013       0.00000000
Au       2.95582373       3.40921370       5.99216510        3       0.00048586      -0.00028051      -0.00062854       0.00000000
Au       5.90493135       3.40921370       5.99216510        3      -0.00048586      -0.00028051      -0.00062854       0.00000000
Au       8.86075508       3.40210552       6.00531785        3       0.00000000       0.00005863       0.00209867       0.00000000
Au       4.43037754       5.97022530       5.95992984        3      -0.00000000      -0.00008566       0.00070013       0.00000000
Au       7.37668734       5.97258623       6.00531785        3       0.00005077      -0.00002931       0.00209867       0.00000000
Au      10.34482281       5.97258623       6.00531785        3      -0.00005077      -0.00002931       0.00209867       0.00000000
Au      -0.00000000       1.67979406       8.43022109        2       0.00000000       0.00134630       0.00481864       0.00000000
Au       2.94868831       1.70242599       8.40756506        2       0.00035721       0.00020624      -0.00276945       0.00000000
Au       5.91206677       1.70242599       8.40756506        2      -0.00035721       0.00020624      -0.00276945       0.00000000
Au       1.47356823       4.26499431       8.40784718        2       0.00163841      -0.00094594       0.00074545       0.00000000
Au       4.43037754       4.26878702       8.40756506        2       0.00000000      -0.00041247      -0.00276945       0.00000000
Au       7.38718684       4.26499431       8.40784718        2      -0.00163841      -0.00094594       0.00074545       0.00000000
Au       2.97563321       6.83374196       8.43022109        2      -0.00116593      -0.00067315       0.00481864       0.00000000
Au       5.88512186       6.83374196       8.43022109        2       0.00116593      -0.00067315       0.00481864       0.00000000
Au       8.86075508       6.81728936       8.40784718        2       0.00000000       0.00189187       0.00074545       0.00000000
Au      -0.00000000       0.00000000      10.86160916        1       0.00000000       0.00000000      -0.00011072       0.00000000
Au       2.98740203       0.00169177      10.83007161        1       0.00326465       0.00107134      -0.00230028       0.00000000
Au       5.87335304       0.00169177      10.83007161        1      -0.00326465       0.00107134      -0.00230028       0.00000000
Au       1.49516613       2.58632016      10.83007161        1       0.00256013       0.00229160      -0.00230028       0.00000000
Au       4.43037754       2.55787966      10.83207202        1       0.00000000       0.00000000      -0.00925020       0.00000000
Au       7.36558895       2.58632017      10.83007161        1      -0.00256013       0.00229160      -0.00230028       0.00000000
Au       2.93814164       5.08562706      10.83007161        1      -0.00070452      -0.00336294      -0.00230028       0.00000000
Au       5.92261344       5.08562706      10.83007161        1       0.00070452      -0.00336294      -0.00230028       0.00000000
Au       8.86075508       5.11575933      10.83654315        1       0.00000000      -0.00000000      -0.00346019       0.00000000
O       -0.00000000       0.00000000      12.80982039        0       0.00000000       0.00000000       0.00042144       0.00000000
