28
Lattice="8.860755075048626 0.0 0.0 4.430377537524313 7.673638991703999 0.0 0.0 0.0 16.823184148810135" Properties=species:S:1:pos:R:3:tags:I:1:forces:R:3:magmoms:R:1 energy=-81.80183195059347 dipole="0.21033129948829196 0.12143483728964664 -0.6402322814625852" magmom=0.0 free_energy=-81.96565734201218 pbc="T T F"
Au       1.47544847       0.85185057       5.95907863        3      -0.00030781      -0.00017771       0.00020383       0.00000000
Au       4.43037754       0.85521568       5.99191950        3      -0.00000000       0.00043386      -0.00141075       0.00000000
Au       7.38530661       0.85185057       5.95907863        3       0.00030781      -0.00017771       0.00020383       0.00000000
Au       2.95582727       3.40921166       5.99191950        3       0.00037573      -0.00021693      -0.00141075       0.00000000
Au       5.90492780       3.40921166       5.99191950        3      -0.00037573      -0.00021693      -0.00141075       0.00000000
Au       8.86075508       3.40216208       6.00545015        3      -0.00000000      -0.00239759       0.00048325       0.00000000
Au       4.43037754       5.96993785       5.95907863        3      -0.00000000       0.00035543       0.00020383       0.00000000
Au       7.37673632       5.97255795       6.00545015        3      -0.00207638       0.00119880       0.00048325       0.00000000
Au      10.34477383       5.97255795       6.00545015        3       0.00207638       0.00119880       0.00048325       0.00000000
Au      -0.00000000       1.67932954       8.43014095        2       0.00000000       0.00591386       0.00630081       0.00000000
Au       2.94889357       1.70254450       8.40713073        2      -0.00116561      -0.00067296      -0.00058632       0.00000000
Au       5.91186150       1.70254450       8.40713073        2       0.00116561      -0.00067296      -0.00058632       0.00000000
Au       1.47341975       4.26508004       8.40760380        2       0.00364530      -0.00210462       0.00331690       0.00000000
Au       4.43037754       4.26855000       8.40713073        2      -0.00000000       0.00134593      -0.00058632       0.00000000
Au       7.38733532       4.26508004       8.40760380        2      -0.00364530      -0.00210462       0.00331690       0.00000000
Au       2.97603549       6.83397422       8.43014095        2      -0.00512155      -0.00295693       0.00630081       0.00000000
Au       5.88471958       6.83397422       8.43014095        2       0.00512155      -0.00295693       0.00630081       0.00000000
Au       8.86075508       6.81711791       8.40760380        2       0.00000000       0.00420923       0.00331690       0.00000000
Au       0.00000000       0.00000000      10.86281750        1      -0.00000000       0.00000000      -0.00497631       0.00000000
Au       2.98758483       0.00161949      10.83073609        1       0.00142957       0.00231700      -0.00237381       0.00000000
Au       5.87317024       0.00161949      10.83073609        1      -0.00142957       0.00231700      -0.00237381       0.00000000
Au       1.49519493       2.58651462      10.83073609        1       0.00272137       0.00007954      -0.00237381       0.00000000
Au       4.43037754       2.55787966      10.83239805        1      -0.00000000       0.00000000      -0.00556054       0.00000000
Au       7.36556014       2.58651462      10.83073609        1      -0.00272137       0.00007954      -0.00237381       0.00000000
Au       2.93798764       5.08550489      10.83073609        1       0.00129180      -0.00239654      -0.00237381       0.00000000
Au       5.92276744       5.08550489      10.83073609        1      -0.00129180      -0.00239654      -0.00237381       0.00000000
Au       8.86075508       5.11575933      10.83705634        1       0.00000000       0.00000000      -0.00175853       0.00000000
O        0.00000000       0.00000000      12.81075109        0       0.00000000       0.00000000       0.00245627       0.00000000
