
  ___ ___ ___ _ _ _  
 |   |   |_  | | | | 
 | | | | | . | | | | 
 |__ |  _|___|_____|  22.8.0
 |___|_|             

User:   gotols@vera07-3
Date:   Thu Mar  2 12:49:06 2023
Arch:   x86_64
Pid:    1667366
CWD:    /cephyr/users/gotols/Vera/TIF320-Computational-materials-and-molecular-physics-Assignments
Python: 3.10.4
gpaw:   /apps/Arch/software/GPAW/22.8.0-foss-2022a/lib/python3.10/site-packages/gpaw
_gpaw:  /apps/Arch/software/GPAW/22.8.0-foss-2022a/lib/python3.10/site-packages/
        _gpaw.cpython-310-x86_64-linux-gnu.so
ase:    /apps/Arch/software/ASE/3.22.1-foss-2022a/lib/python3.10/site-packages/ase (version 3.22.1)
numpy:  /apps/Arch/software/SciPy-bundle/2022.05-foss-2022a/lib/python3.10/site-packages/numpy (version 1.22.3)
scipy:  /apps/Arch/software/SciPy-bundle/2022.05-foss-2022a/lib/python3.10/site-packages/scipy (version 1.8.1)
libxc:  5.2.3
units:  Angstrom and eV
cores: 16
OpenMP: False
OMP_NUM_THREADS: 1

Input parameters:
  kpts: [4 4 1]
  mode: {ecut: 450.00000000000006,
         name: pw}
  xc: PBE

System changes: positions, numbers, cell, pbc, initial_charges, initial_magmoms 

Initialize ...

species:
  Pt:
    name: Platinum
    id: 5ed695806aff0c961dba1a84acd7f4b2
    Z: 78.0
    valence: 16
    core: 62
    charge: 0.0
    file: /apps/Common/software/GPAW-setups/0.9.20000/Pt.PBE.gz
    compensation charges: {type: gauss,
                           rc: 0.41,
                           lmax: 2}
    cutoffs: {filter: 2.26,
              core: 2.26}
    valence states:
      #              energy  rcut
      - 6s(1.00)    -5.628   1.307
      - 5p(6.00)   -56.051   1.371
      - 6p(0.00)    -0.845   1.371
      - 5d(9.00)    -6.153   1.307
      -  s          21.583   1.307
      -  d          21.058   1.307
  
    # Using partial waves for Pt as LCAO basis

  O:
    name: Oxygen
    id: 32ecd46bf208036f09c70b0ec9a88b78
    Z: 8.0
    valence: 6
    core: 2
    charge: 0.0
    file: /apps/Common/software/GPAW-setups/0.9.20000/O.PBE.gz
    compensation charges: {type: gauss,
                           rc: 0.21,
                           lmax: 2}
    cutoffs: {filter: 1.17,
              core: 0.83}
    valence states:
      #              energy  rcut
      - 2s(2.00)   -23.961   0.688
      - 2p(4.00)    -9.029   0.598
      -  s           3.251   0.688
      -  p          18.182   0.598
      -  d           0.000   0.619
  
    # Using partial waves for O as LCAO basis

  C:
    name: Carbon
    id: 4aa54d4b901d75f77cc0ea3eec22967b
    Z: 6.0
    valence: 4
    core: 2
    charge: 0.0
    file: /apps/Common/software/GPAW-setups/0.9.20000/C.PBE.gz
    compensation charges: {type: gauss,
                           rc: 0.20,
                           lmax: 2}
    cutoffs: {filter: 1.14,
              core: 1.14}
    valence states:
      #              energy  rcut
      - 2s(2.00)   -13.751   0.635
      - 2p(2.00)    -5.284   0.635
      -  s          13.461   0.635
      -  p          21.927   0.635
      -  d           0.000   0.635
  
    # Using partial waves for C as LCAO basis

Reference energy: -13513203.275138  # eV

Spin-paired calculation

Convergence criteria:
 Maximum [total energy] change in last 3 cyles: 0.0005 eV / electron
 Maximum integral of absolute [dens]ity change: 0.0001 electrons / valence electron
 Maximum integral of absolute [eigenst]ate change: 4e-08 eV^2 / valence electron
 Maximum number of scf [iter]ations: 333
 (Square brackets indicate name in SCF output, whereas a 'c' in
 the SCF output indicates the quantity has converged.)

Symmetries present (total): 2

  ( 1  0  0)  ( 0  1  0)
  ( 0  1  0)  ( 1  0  0)
  ( 0  0  1)  ( 0  0  1)

16 k-points: 4 x 4 x 1 Monkhorst-Pack grid
6 k-points in the irreducible part of the Brillouin zone
       k-points in crystal coordinates                weights
   0:     0.12500000   -0.12500000    0.00000000          2/16
   1:     0.12500000    0.12500000    0.00000000          2/16
   2:     0.37500000   -0.37500000    0.00000000          2/16
   3:     0.37500000   -0.12500000    0.00000000          4/16
   4:     0.37500000    0.12500000    0.00000000          4/16
   5:     0.37500000    0.37500000    0.00000000          2/16

Wave functions: Plane wave expansion
  Cutoff energy: 450.000 eV
  Number of coefficients (min, max): 22059, 22107
  Pulay-stress correction: 0.000000 eV/Ang^3 (de/decut=0.000000)
  Using FFTW library
  ScaLapack parameters: grid=1x1, blocksize=None
  Wavefunction extrapolation:
    Improved wavefunction reuse through dual PAW basis 

Occupation numbers: Fermi-Dirac:
  width: 0.1000  # eV
 

Eigensolver
   Davidson(niter=2) 

Densities:
  Coarse grid: 42*42*84 grid
  Fine grid: 84*84*168 grid
  Total Charge: 0.000000 

Density mixing:
  Method: separate
  Backend: pulay
  Linear mixing parameter: 0.05
  old densities: 5
  Damping of long wavelength oscillations: 50 

Hamiltonian:
  XC and Coulomb potentials evaluated on a 84*84*168 grid
  Using the PBE Exchange-Correlation functional
  External potential:
    NoExternalPotential
 

XC parameters: PBE with 2 nearest neighbor stencil

Memory estimate:
  Process memory now: 863.46 MiB
  Calculator: 397.52 MiB
    Density: 9.49 MiB
      Arrays: 3.67 MiB
      Localized functions: 4.41 MiB
      Mixer: 1.41 MiB
    Hamiltonian: 2.52 MiB
      Arrays: 2.40 MiB
      XC: 0.00 MiB
      Poisson: 0.00 MiB
      vbar: 0.12 MiB
    Wavefunctions: 385.50 MiB
      Arrays psit_nG: 273.23 MiB
      Eigensolver: 103.90 MiB
      Projections: 0.79 MiB
      Projectors: 1.58 MiB
      PW-descriptor: 6.00 MiB

Total number of cores used: 16
Parallelization over k-points: 2
Domain decomposition: 2 x 2 x 2

Number of atoms: 29
Number of atomic orbitals: 332
Number of bands in calculation: 270
Number of valence electrons: 442
Bands to converge: occupied

... initialized

Initializing position-dependent things.

Density initialized from atomic densities
Creating initial wave functions:
  270 bands from LCAO basis set

                                            
                                            
                                            
                                            
                                            
                                            
               O                            
                                            
               C Pt     Pt     Pt           
                                            
            Pt    PPt    PPt   Pt           
       Pt    PPt    PPt    Pt               
                                            
        Pt     Pt    PPt    Pt    Pt        
                                            
                Pt     Pt     Pt            
           Pt     Pt     Pt                 
                                            
                                            
                                            
                                            

Positions:
   0 Pt     1.403607    0.810373    6.000000    ( 0.0000,  0.0000,  0.0000)
   1 Pt     4.210821    0.810373    6.000000    ( 0.0000,  0.0000,  0.0000)
   2 Pt     7.018035    0.810373    6.000000    ( 0.0000,  0.0000,  0.0000)
   3 Pt     2.807214    3.241491    6.000000    ( 0.0000,  0.0000,  0.0000)
   4 Pt     5.614428    3.241491    6.000000    ( 0.0000,  0.0000,  0.0000)
   5 Pt     8.421642    3.241491    6.000000    ( 0.0000,  0.0000,  0.0000)
   6 Pt     4.210821    5.672610    6.000000    ( 0.0000,  0.0000,  0.0000)
   7 Pt     7.018035    5.672610    6.000000    ( 0.0000,  0.0000,  0.0000)
   8 Pt     9.825249    5.672610    6.000000    ( 0.0000,  0.0000,  0.0000)
   9 Pt    -0.000000    1.620746    8.292081    ( 0.0000,  0.0000,  0.0000)
  10 Pt     2.807214    1.620746    8.292081    ( 0.0000,  0.0000,  0.0000)
  11 Pt     5.614428    1.620746    8.292081    ( 0.0000,  0.0000,  0.0000)
  12 Pt     1.403607    4.051864    8.292081    ( 0.0000,  0.0000,  0.0000)
  13 Pt     4.210821    4.051864    8.292081    ( 0.0000,  0.0000,  0.0000)
  14 Pt     7.018035    4.051864    8.292081    ( 0.0000,  0.0000,  0.0000)
  15 Pt     2.807214    6.482983    8.292081    ( 0.0000,  0.0000,  0.0000)
  16 Pt     5.614428    6.482983    8.292081    ( 0.0000,  0.0000,  0.0000)
  17 Pt     8.421642    6.482983    8.292081    ( 0.0000,  0.0000,  0.0000)
  18 Pt     0.000000    0.000000   10.584161    ( 0.0000,  0.0000,  0.0000)
  19 Pt     2.807214    0.000000   10.584161    ( 0.0000,  0.0000,  0.0000)
  20 Pt     5.614428    0.000000   10.584161    ( 0.0000,  0.0000,  0.0000)
  21 Pt     1.403607    2.431119   10.584161    ( 0.0000,  0.0000,  0.0000)
  22 Pt     4.210821    2.431119   10.584161    ( 0.0000,  0.0000,  0.0000)
  23 Pt     7.018035    2.431119   10.584161    ( 0.0000,  0.0000,  0.0000)
  24 Pt     2.807214    4.862237   10.584161    ( 0.0000,  0.0000,  0.0000)
  25 Pt     5.614428    4.862237   10.584161    ( 0.0000,  0.0000,  0.0000)
  26 Pt     8.421642    4.862237   10.584161    ( 0.0000,  0.0000,  0.0000)
  27 O      2.807214    1.620746   13.734501    ( 0.0000,  0.0000,  0.0000)
  28 C      2.807214    1.620746   12.584161    ( 0.0000,  0.0000,  0.0000)

Unit cell:
           periodic     x           y           z      points  spacing
  1. axis:    yes    8.421642    0.000000    0.000000    42     0.1737
  2. axis:    yes    4.210821    7.293356    0.000000    42     0.1737
  3. axis:    no     0.000000    0.000000   16.584161    84     0.1974

  Lengths:   8.421642   8.421642  16.584161
  Angles:   90.000000  90.000000  60.000000

Effective grid spacing dv^(1/3) = 0.1901

     iter     time        total  log10-change:
                         energy  eigst   dens
iter:   1 12:49:28  -188.369639
iter:   2 12:49:36  -185.604097  -1.18  -1.40
iter:   3 12:49:44  -181.566435  -1.83  -1.45
iter:   4 12:49:51  -177.667417  -1.54  -1.55
iter:   5 12:49:59  -177.544756  -2.29  -1.81
iter:   6 12:50:07  -176.759555  -2.28  -1.88
iter:   7 12:50:15  -176.740783  -3.14  -2.18
iter:   8 12:50:23  -176.664443c -3.46  -2.23
iter:   9 12:50:31  -176.627830c -2.96  -2.34
iter:  10 12:50:39  -176.621440c -3.73  -2.77
iter:  11 12:50:46  -176.623312c -4.09  -2.87
iter:  12 12:50:54  -176.618080c -4.35  -2.88
iter:  13 12:51:02  -176.618703c -4.28  -3.07
iter:  14 12:51:10  -176.619048c -5.03  -3.21
iter:  15 12:51:18  -176.620259c -4.90  -3.27
iter:  16 12:51:26  -176.621483c -5.00  -3.52
iter:  17 12:51:34  -176.621397c -5.42  -3.71
iter:  18 12:51:42  -176.621416c -6.00  -3.86
iter:  19 12:51:49  -176.621209c -6.13  -3.87
iter:  20 12:51:57  -176.621157c -6.33  -4.09c
iter:  21 12:52:05  -176.621148c -6.63  -4.23c
iter:  22 12:52:13  -176.621102c -6.93  -4.29c
iter:  23 12:52:21  -176.621028c -7.06  -4.34c
iter:  24 12:52:29  -176.621029c -7.30  -4.36c
iter:  25 12:52:37  -176.620917c -7.34  -4.40c
iter:  26 12:52:44  -176.620878c -7.81c -4.55c

Converged after 26 iterations.

Dipole moment: (-0.713006, -0.411654, 0.035837) |e|*Ang

Energy contributions relative to reference atoms: (reference = -13513203.275138)

Kinetic:       -302.965187
Potential:     +228.831226
External:        +0.000000
XC:             -86.913953
Entropy (-ST):   -1.766230
Local:          -14.689849
--------------------------
Free energy:   -177.503993
Extrapolated:  -176.620878

Showing only first 2 kpts
 Kpt  Band  Eigenvalues  Occupancy
  0   219      1.46980    1.39047
  0   220      1.49367    1.28490
  0   221      1.51625    1.17816
  0   222      1.53228    1.09960

  1   219      1.31534    1.82891
  1   220      1.35359    1.75881
  1   221      1.37584    1.70749
  1   222      1.42003    1.57915


Fermi level: 1.55227

No gap

Forces in eV/Ang:
  0 Pt   -0.02065   -0.01192   -0.03919
  1 Pt    0.02118   -0.01410   -0.04606
  2 Pt   -0.00659    0.01337   -0.12066
  3 Pt   -0.00162    0.02540   -0.04606
  4 Pt    0.00002    0.00001   -0.04642
  5 Pt    0.00436    0.00213   -0.05153
  6 Pt    0.00828   -0.01239   -0.12066
  7 Pt    0.00402    0.00271   -0.05153
  8 Pt   -0.02050   -0.01184   -0.11387
  9 Pt    0.05444    0.01789    0.03527
 10 Pt   -0.00157   -0.00091   -0.26808
 11 Pt   -0.04996    0.02070    0.05309
 12 Pt    0.00883   -0.06798    0.04270
 13 Pt   -0.00705   -0.05361    0.05309
 14 Pt   -0.00254   -0.00146    0.00950
 15 Pt    0.00419    0.00242   -0.08649
 16 Pt    0.04271    0.03821    0.03527
 17 Pt   -0.05446    0.04164    0.04270
 18 Pt   -0.14621   -0.08442    0.00837
 19 Pt    0.01046    0.11605    0.85183
 20 Pt    0.14444   -0.08837    0.00091
 21 Pt    0.10573   -0.04897    0.85183
 22 Pt   -0.09650   -0.05572    0.85025
 23 Pt    0.00291    0.01340    0.03067
 24 Pt   -0.00432    0.16927    0.00091
 25 Pt    0.01306   -0.00418    0.03067
 26 Pt   -0.01272   -0.00734    0.03364
 27 O    -0.00009   -0.00005    0.53669
 28 C     0.00102    0.00059   -2.39863

System changes: positions 

Initializing position-dependent things.

Density initialized from wave functions
                                            
                                            
                                            
                                            
                                            
                                            
               O                            
                                            
               C Pt     Pt     Pt           
                                            
            Pt    PPt    PPt   Pt           
       Pt    PPt    PPt    Pt               
                                            
        Pt     Pt    PPt    Pt    Pt        
                                            
                Pt     Pt     Pt            
           Pt     Pt     Pt                 
                                            
                                            
                                            
                                            

Positions:
   0 Pt     1.403607    0.810373    6.000000    ( 0.0000,  0.0000,  0.0000)
   1 Pt     4.210821    0.810373    6.000000    ( 0.0000,  0.0000,  0.0000)
   2 Pt     7.018035    0.810373    6.000000    ( 0.0000,  0.0000,  0.0000)
   3 Pt     2.807214    3.241491    6.000000    ( 0.0000,  0.0000,  0.0000)
   4 Pt     5.614428    3.241491    6.000000    ( 0.0000,  0.0000,  0.0000)
   5 Pt     8.421642    3.241491    6.000000    ( 0.0000,  0.0000,  0.0000)
   6 Pt     4.210821    5.672610    6.000000    ( 0.0000,  0.0000,  0.0000)
   7 Pt     7.018035    5.672610    6.000000    ( 0.0000,  0.0000,  0.0000)
   8 Pt     9.825249    5.672610    6.000000    ( 0.0000,  0.0000,  0.0000)
   9 Pt    -0.000000    1.620746    8.292081    ( 0.0000,  0.0000,  0.0000)
  10 Pt     2.807214    1.620746    8.292081    ( 0.0000,  0.0000,  0.0000)
  11 Pt     5.614428    1.620746    8.292081    ( 0.0000,  0.0000,  0.0000)
  12 Pt     1.403607    4.051864    8.292081    ( 0.0000,  0.0000,  0.0000)
  13 Pt     4.210821    4.051864    8.292081    ( 0.0000,  0.0000,  0.0000)
  14 Pt     7.018035    4.051864    8.292081    ( 0.0000,  0.0000,  0.0000)
  15 Pt     2.807214    6.482983    8.292081    ( 0.0000,  0.0000,  0.0000)
  16 Pt     5.614428    6.482983    8.292081    ( 0.0000,  0.0000,  0.0000)
  17 Pt     8.421642    6.482983    8.292081    ( 0.0000,  0.0000,  0.0000)
  18 Pt     0.000000    0.000000   10.584161    ( 0.0000,  0.0000,  0.0000)
  19 Pt     2.807214    0.000000   10.584161    ( 0.0000,  0.0000,  0.0000)
  20 Pt     5.614428    0.000000   10.584161    ( 0.0000,  0.0000,  0.0000)
  21 Pt     1.403607    2.431119   10.584161    ( 0.0000,  0.0000,  0.0000)
  22 Pt     4.210821    2.431119   10.584161    ( 0.0000,  0.0000,  0.0000)
  23 Pt     7.018035    2.431119   10.584161    ( 0.0000,  0.0000,  0.0000)
  24 Pt     2.807214    4.862237   10.584161    ( 0.0000,  0.0000,  0.0000)
  25 Pt     5.614428    4.862237   10.584161    ( 0.0000,  0.0000,  0.0000)
  26 Pt     8.421642    4.862237   10.584161    ( 0.0000,  0.0000,  0.0000)
  27 O      2.807214    1.620746   13.734501    ( 0.0000,  0.0000,  0.0000)
  28 C      2.807384    1.620844   12.184161    ( 0.0000,  0.0000,  0.0000)

Unit cell:
           periodic     x           y           z      points  spacing
  1. axis:    yes    8.421642    0.000000    0.000000    42     0.1737
  2. axis:    yes    4.210821    7.293356    0.000000    42     0.1737
  3. axis:    no     0.000000    0.000000   16.584161    84     0.1974

  Lengths:   8.421642   8.421642  16.584161
  Angles:   90.000000  90.000000  60.000000

Effective grid spacing dv^(1/3) = 0.1901

     iter     time        total  log10-change:
                         energy  eigst   dens
iter:   1 12:52:55  -195.498968  -0.44
iter:   2 12:53:03  -191.205880  -1.47  -1.61
iter:   3 12:53:10  -186.874042  -1.59  -1.56
iter:   4 12:53:18  -176.736356  -1.97  -1.62
iter:   5 12:53:26  -175.575286  -2.80  -2.02
iter:   6 12:53:34  -175.185095  -3.22  -2.19
iter:   7 12:53:42  -174.833206  -2.61  -2.30
iter:   8 12:53:50  -174.760933  -3.63  -2.60
iter:   9 12:53:57  -174.840991c -3.20  -2.68
iter:  10 12:54:05  -174.625856c -3.45  -2.36
iter:  11 12:54:13  -174.591764  -4.43  -2.76
iter:  12 12:54:21  -174.590514c -4.85  -3.03
iter:  13 12:54:29  -174.591648c -5.49  -3.14
iter:  14 12:54:37  -174.593654c -4.73  -3.20
iter:  15 12:54:45  -174.594170c -5.27  -3.42
iter:  16 12:54:53  -174.594191c -6.12  -3.55
iter:  17 12:55:00  -174.594149c -6.10  -3.60
iter:  18 12:55:08  -174.594099c -5.82  -3.72
iter:  19 12:55:16  -174.593989c -6.30  -3.94
iter:  20 12:55:24  -174.593582c -6.53  -4.04c
iter:  21 12:55:32  -174.593449c -6.93  -4.23c
iter:  22 12:55:40  -174.593365c -7.25  -4.28c
iter:  23 12:55:48  -174.593294c -7.33  -4.42c
iter:  24 12:55:55  -174.593263c -7.14  -4.42c
iter:  25 12:56:03  -174.593263c -8.53c -4.67c

Converged after 25 iterations.

Dipole moment: (0.079141, 0.045692, -0.763369) |e|*Ang

Energy contributions relative to reference atoms: (reference = -13513203.275138)

Kinetic:       -323.814246
Potential:     +247.070068
External:        +0.000000
XC:             -82.367400
Entropy (-ST):   -1.736238
Local:          -14.613567
--------------------------
Free energy:   -175.461382
Extrapolated:  -174.593263

Showing only first 2 kpts
 Kpt  Band  Eigenvalues  Occupancy
  0   219      1.16943    1.42806
  0   220      1.19972    1.29687
  0   221      1.21641    1.21901
  0   222      1.23576    1.12523

  1   219      1.02504    1.82728
  1   220      1.06262    1.75802
  1   221      1.08753    1.69985
  1   222      1.12507    1.59109


Fermi level: 1.26093

No gap

Forces in eV/Ang:
  0 Pt   -0.00957   -0.00552   -0.04450
  1 Pt    0.01120   -0.01131   -0.04610
  2 Pt   -0.00710   -0.04518   -0.20022
  3 Pt   -0.00419    0.01536   -0.04610
  4 Pt   -0.00267   -0.00154   -0.03686
  5 Pt    0.01273   -0.00346   -0.04042
  6 Pt   -0.04268    0.01644   -0.20022
  7 Pt    0.00337    0.01276   -0.04042
  8 Pt    0.02924    0.01688   -0.19750
  9 Pt   -0.00545    0.03162    0.02991
 10 Pt    0.00211    0.00122   -0.38336
 11 Pt    0.00777    0.03448    0.04801
 12 Pt   -0.03072   -0.01861    0.03496
 13 Pt    0.03374   -0.01051    0.04801
 14 Pt   -0.00356   -0.00206    0.00096
 15 Pt    0.00328    0.00190   -0.07495
 16 Pt    0.02466   -0.02053    0.02991
 17 Pt   -0.03148   -0.01730    0.03496
 18 Pt   -0.24333   -0.14049   -0.02599
 19 Pt    0.01058    0.50159    1.45408
 20 Pt    0.24019   -0.14696   -0.03820
 21 Pt    0.43968   -0.24163    1.45408
 22 Pt   -0.43133   -0.24903    1.43974
 23 Pt    0.00554    0.00716    0.02504
 24 Pt   -0.00718    0.28149   -0.03820
 25 Pt    0.00897    0.00122    0.02504
 26 Pt   -0.01255   -0.00725    0.02637
 27 O     0.00142    0.00082   -9.64253
 28 C    -0.00131   -0.00076    6.39094

System changes: positions 

Initializing position-dependent things.

Density initialized from wave functions
                                            
                                            
                                            
                                            
                                            
                                            
               O                            
                                            
               C Pt     Pt     Pt           
                                            
            Pt    PPt    PPt   Pt           
       Pt    PPt    PPt    Pt               
                                            
        Pt     Pt    PPt    Pt    Pt        
                                            
                Pt     Pt     Pt            
           Pt     Pt     Pt                 
                                            
                                            
                                            
                                            

Positions:
   0 Pt     1.403607    0.810373    6.000000    ( 0.0000,  0.0000,  0.0000)
   1 Pt     4.210821    0.810373    6.000000    ( 0.0000,  0.0000,  0.0000)
   2 Pt     7.018035    0.810373    6.000000    ( 0.0000,  0.0000,  0.0000)
   3 Pt     2.807214    3.241491    6.000000    ( 0.0000,  0.0000,  0.0000)
   4 Pt     5.614428    3.241491    6.000000    ( 0.0000,  0.0000,  0.0000)
   5 Pt     8.421642    3.241491    6.000000    ( 0.0000,  0.0000,  0.0000)
   6 Pt     4.210821    5.672610    6.000000    ( 0.0000,  0.0000,  0.0000)
   7 Pt     7.018035    5.672610    6.000000    ( 0.0000,  0.0000,  0.0000)
   8 Pt     9.825249    5.672610    6.000000    ( 0.0000,  0.0000,  0.0000)
   9 Pt    -0.000000    1.620746    8.292081    ( 0.0000,  0.0000,  0.0000)
  10 Pt     2.807214    1.620746    8.292081    ( 0.0000,  0.0000,  0.0000)
  11 Pt     5.614428    1.620746    8.292081    ( 0.0000,  0.0000,  0.0000)
  12 Pt     1.403607    4.051864    8.292081    ( 0.0000,  0.0000,  0.0000)
  13 Pt     4.210821    4.051864    8.292081    ( 0.0000,  0.0000,  0.0000)
  14 Pt     7.018035    4.051864    8.292081    ( 0.0000,  0.0000,  0.0000)
  15 Pt     2.807214    6.482983    8.292081    ( 0.0000,  0.0000,  0.0000)
  16 Pt     5.614428    6.482983    8.292081    ( 0.0000,  0.0000,  0.0000)
  17 Pt     8.421642    6.482983    8.292081    ( 0.0000,  0.0000,  0.0000)
  18 Pt     0.000000    0.000000   10.584161    ( 0.0000,  0.0000,  0.0000)
  19 Pt     2.807214    0.000000   10.584161    ( 0.0000,  0.0000,  0.0000)
  20 Pt     5.614428    0.000000   10.584161    ( 0.0000,  0.0000,  0.0000)
  21 Pt     1.403607    2.431119   10.584161    ( 0.0000,  0.0000,  0.0000)
  22 Pt     4.210821    2.431119   10.584161    ( 0.0000,  0.0000,  0.0000)
  23 Pt     7.018035    2.431119   10.584161    ( 0.0000,  0.0000,  0.0000)
  24 Pt     2.807214    4.862237   10.584161    ( 0.0000,  0.0000,  0.0000)
  25 Pt     5.614428    4.862237   10.584161    ( 0.0000,  0.0000,  0.0000)
  26 Pt     8.421642    4.862237   10.584161    ( 0.0000,  0.0000,  0.0000)
  27 O      2.807214    1.620746   13.734501    ( 0.0000,  0.0000,  0.0000)
  28 C      2.807238    1.620760   12.539735    ( 0.0000,  0.0000,  0.0000)

Unit cell:
           periodic     x           y           z      points  spacing
  1. axis:    yes    8.421642    0.000000    0.000000    42     0.1737
  2. axis:    yes    4.210821    7.293356    0.000000    42     0.1737
  3. axis:    no     0.000000    0.000000   16.584161    84     0.1974

  Lengths:   8.421642   8.421642  16.584161
  Angles:   90.000000  90.000000  60.000000

Effective grid spacing dv^(1/3) = 0.1901

     iter     time        total  log10-change:
                         energy  eigst   dens
iter:   1 12:56:13  -181.312464  -1.58
iter:   2 12:56:21  -179.151081  -2.59  -2.00
iter:   3 12:56:29  -179.803339  -2.38  -2.15
iter:   4 12:56:37  -177.525488  -2.81  -1.90
iter:   5 12:56:45  -177.051070  -2.98  -2.36
iter:   6 12:56:53  -176.845164  -3.39  -2.38
iter:   7 12:57:01  -176.703114  -3.14  -2.51
iter:   8 12:57:08  -176.664662c -3.72  -2.74
iter:   9 12:57:16  -176.661135c -4.09  -2.94
iter:  10 12:57:24  -176.653390c -4.33  -2.94
iter:  11 12:57:32  -176.649245c -4.95  -3.10
iter:  12 12:57:40  -176.648427c -4.91  -3.28
iter:  13 12:57:48  -176.648051c -5.45  -3.38
iter:  14 12:57:56  -176.647896c -5.43  -3.52
iter:  15 12:58:03  -176.647769c -6.09  -3.72
iter:  16 12:58:11  -176.647484c -6.17  -3.83
iter:  17 12:58:19  -176.647385c -6.68  -3.92
iter:  18 12:58:27  -176.647454c -6.70  -4.07c
iter:  19 12:58:35  -176.647490c -7.01  -4.20c
iter:  20 12:58:43  -176.647517c -6.93  -4.34c
iter:  21 12:58:51  -176.647506c -7.51c -4.51c

Converged after 21 iterations.

Dipole moment: (-0.615793, -0.355528, -0.069986) |e|*Ang

Energy contributions relative to reference atoms: (reference = -13513203.275138)

Kinetic:       -309.414772
Potential:     +234.210468
External:        +0.000000
XC:             -85.906068
Entropy (-ST):   -1.760522
Local:          -14.656874
--------------------------
Free energy:   -177.527767
Extrapolated:  -176.647506

Showing only first 2 kpts
 Kpt  Band  Eigenvalues  Occupancy
  0   219      1.43199    1.39497
  0   220      1.45648    1.28693
  0   221      1.47887    1.18123
  0   222      1.49531    1.10073

  1   219      1.27732    1.83089
  1   220      1.31615    1.76027
  1   221      1.33921    1.70720
  1   222      1.38285    1.58058


Fermi level: 1.51552

No gap

Forces in eV/Ang:
  0 Pt   -0.01815   -0.01048   -0.03470
  1 Pt    0.01867   -0.01301   -0.04062
  2 Pt   -0.00668    0.00840   -0.12580
  3 Pt   -0.00193    0.02267   -0.04062
  4 Pt   -0.00083   -0.00048   -0.03931
  5 Pt    0.00618    0.00102   -0.04442
  6 Pt    0.00393   -0.00999   -0.12580
  7 Pt    0.00398    0.00484   -0.04442
  8 Pt   -0.01657   -0.00957   -0.11907
  9 Pt    0.04951    0.02057    0.03544
 10 Pt   -0.00132   -0.00076   -0.27733
 11 Pt   -0.04516    0.02309    0.05396
 12 Pt    0.00448   -0.06483    0.04304
 13 Pt   -0.00259   -0.05066    0.05396
 14 Pt   -0.00262   -0.00151    0.00806
 15 Pt    0.00410    0.00237   -0.08577
 16 Pt    0.04256    0.03259    0.03544
 17 Pt   -0.05390    0.03629    0.04304
 18 Pt   -0.15907   -0.09184    0.00266
 19 Pt    0.01074    0.17359    0.95838
 20 Pt    0.15708   -0.09616   -0.00602
 21 Pt    0.15570   -0.07750    0.95838
 22 Pt   -0.14622   -0.08442    0.95602
 23 Pt    0.00329    0.01171    0.02251
 24 Pt   -0.00474    0.18411   -0.00602
 25 Pt    0.01179   -0.00301    0.02251
 26 Pt   -0.01207   -0.00697    0.02480
 27 O     0.00003    0.00002   -3.27401
 28 C     0.00108    0.00063    1.11048

System changes: positions 

Initializing position-dependent things.

Density initialized from wave functions
                                            
                                            
                                            
                                            
                                            
                                            
               O                            
                                            
               C Pt     Pt     Pt           
                                            
            Pt    PPt    PPt   Pt           
       Pt    PPt    PPt    Pt               
                                            
        Pt     Pt    PPt    Pt    Pt        
                                            
                Pt     Pt     Pt            
           Pt     Pt     Pt                 
                                            
                                            
                                            
                                            

Positions:
   0 Pt     1.403607    0.810373    6.000000    ( 0.0000,  0.0000,  0.0000)
   1 Pt     4.210821    0.810373    6.000000    ( 0.0000,  0.0000,  0.0000)
   2 Pt     7.018035    0.810373    6.000000    ( 0.0000,  0.0000,  0.0000)
   3 Pt     2.807214    3.241491    6.000000    ( 0.0000,  0.0000,  0.0000)
   4 Pt     5.614428    3.241491    6.000000    ( 0.0000,  0.0000,  0.0000)
   5 Pt     8.421642    3.241491    6.000000    ( 0.0000,  0.0000,  0.0000)
   6 Pt     4.210821    5.672610    6.000000    ( 0.0000,  0.0000,  0.0000)
   7 Pt     7.018035    5.672610    6.000000    ( 0.0000,  0.0000,  0.0000)
   8 Pt     9.825249    5.672610    6.000000    ( 0.0000,  0.0000,  0.0000)
   9 Pt    -0.000000    1.620746    8.292081    ( 0.0000,  0.0000,  0.0000)
  10 Pt     2.807214    1.620746    8.292081    ( 0.0000,  0.0000,  0.0000)
  11 Pt     5.614428    1.620746    8.292081    ( 0.0000,  0.0000,  0.0000)
  12 Pt     1.403607    4.051864    8.292081    ( 0.0000,  0.0000,  0.0000)
  13 Pt     4.210821    4.051864    8.292081    ( 0.0000,  0.0000,  0.0000)
  14 Pt     7.018035    4.051864    8.292081    ( 0.0000,  0.0000,  0.0000)
  15 Pt     2.807214    6.482983    8.292081    ( 0.0000,  0.0000,  0.0000)
  16 Pt     5.614428    6.482983    8.292081    ( 0.0000,  0.0000,  0.0000)
  17 Pt     8.421642    6.482983    8.292081    ( 0.0000,  0.0000,  0.0000)
  18 Pt     0.000000    0.000000   10.584161    ( 0.0000,  0.0000,  0.0000)
  19 Pt     2.807214    0.000000   10.584161    ( 0.0000,  0.0000,  0.0000)
  20 Pt     5.614428    0.000000   10.584161    ( 0.0000,  0.0000,  0.0000)
  21 Pt     1.403607    2.431119   10.584161    ( 0.0000,  0.0000,  0.0000)
  22 Pt     4.210821    2.431119   10.584161    ( 0.0000,  0.0000,  0.0000)
  23 Pt     7.018035    2.431119   10.584161    ( 0.0000,  0.0000,  0.0000)
  24 Pt     2.807214    4.862237   10.584161    ( 0.0000,  0.0000,  0.0000)
  25 Pt     5.614428    4.862237   10.584161    ( 0.0000,  0.0000,  0.0000)
  26 Pt     8.421642    4.862237   10.584161    ( 0.0000,  0.0000,  0.0000)
  27 O      2.807214    1.620746   13.734501    ( 0.0000,  0.0000,  0.0000)
  28 C      2.807271    1.620779   12.554925    ( 0.0000,  0.0000,  0.0000)

Unit cell:
           periodic     x           y           z      points  spacing
  1. axis:    yes    8.421642    0.000000    0.000000    42     0.1737
  2. axis:    yes    4.210821    7.293356    0.000000    42     0.1737
  3. axis:    no     0.000000    0.000000   16.584161    84     0.1974

  Lengths:   8.421642   8.421642  16.584161
  Angles:   90.000000  90.000000  60.000000

Effective grid spacing dv^(1/3) = 0.1901

     iter     time        total  log10-change:
                         energy  eigst   dens
iter:   1 12:59:01  -176.700760  -3.71
iter:   2 12:59:09  -176.718303  -3.91  -2.83
iter:   3 12:59:16  -176.671842c -4.36  -2.73
iter:   4 12:59:24  -176.659367c -4.71  -3.18
iter:   5 12:59:32  -176.657393c -5.23  -3.56
iter:   6 12:59:40  -176.656266c -5.34  -3.58
iter:   7 12:59:48  -176.655628c -5.63  -3.82
iter:   8 12:59:56  -176.655531c -6.47  -3.95
iter:   9 13:00:04  -176.655686c -6.63  -4.04c
iter:  10 13:00:11  -176.655715c -6.69  -4.03c
iter:  11 13:00:19  -176.655735c -7.25  -4.28c
iter:  12 13:00:27  -176.655730c -7.58c -4.49c

Converged after 12 iterations.

Dipole moment: (-0.647149, -0.373631, -0.034801) |e|*Ang

Energy contributions relative to reference atoms: (reference = -13513203.275138)

Kinetic:       -308.018120
Potential:     +233.069509
External:        +0.000000
XC:             -86.208950
Entropy (-ST):   -1.762423
Local:          -14.616957
--------------------------
Free energy:   -177.536941
Extrapolated:  -176.655730

Showing only first 2 kpts
 Kpt  Band  Eigenvalues  Occupancy
  0   219      1.44504    1.39357
  0   220      1.46935    1.28624
  0   221      1.49181    1.18021
  0   222      1.50816    1.10010

  1   219      1.29053    1.83014
  1   220      1.32904    1.75992
  1   221      1.35187    1.70735
  1   222      1.39566    1.58032


Fermi level: 1.52825

No gap

Forces in eV/Ang:
  0 Pt   -0.02114   -0.01221   -0.03592
  1 Pt    0.02176   -0.01469   -0.04220
  2 Pt   -0.00673    0.00946   -0.12642
  3 Pt   -0.00184    0.02619   -0.04220
  4 Pt    0.00082    0.00047   -0.04309
  5 Pt    0.00414    0.00233   -0.04840
  6 Pt    0.00482   -0.01056   -0.12642
  7 Pt    0.00408    0.00242   -0.04840
  8 Pt   -0.01753   -0.01012   -0.11994
  9 Pt    0.05164    0.02069    0.03873
 10 Pt   -0.00141   -0.00081   -0.27810
 11 Pt   -0.04731    0.02350    0.05693
 12 Pt    0.00524   -0.06706    0.04626
 13 Pt   -0.00330   -0.05272    0.05693
 14 Pt   -0.00273   -0.00157    0.01077
 15 Pt    0.00425    0.00246   -0.08457
 16 Pt    0.04374    0.03438    0.03873
 17 Pt   -0.05546    0.03807    0.04626
 18 Pt   -0.15424   -0.08905    0.00545
 19 Pt    0.01068    0.16426    0.92416
 20 Pt    0.15234   -0.09333   -0.00297
 21 Pt    0.14759   -0.07289    0.92416
 22 Pt   -0.13827   -0.07983    0.92209
 23 Pt    0.00321    0.01290    0.02864
 24 Pt   -0.00465    0.17860   -0.00297
 25 Pt    0.01278   -0.00367    0.02864
 26 Pt   -0.01269   -0.00732    0.03134
 27 O     0.00005    0.00003   -2.06335
 28 C     0.00091    0.00053    0.03437

System changes: positions 

Initializing position-dependent things.

Density initialized from wave functions
                                            
                                            
                                            
                                            
                                            
                                            
               O                            
                                            
               C Pt     Pt     Pt           
                                            
            Pt    PPt    PPt   Pt           
       Pt    PPt    PPt    Pt               
                                            
        Pt     Pt    PPt    Pt    Pt        
                                            
                Pt     Pt     Pt            
           Pt     Pt     Pt                 
                                            
                                            
                                            
                                            

Positions:
   0 Pt     1.403607    0.810373    6.000000    ( 0.0000,  0.0000,  0.0000)
   1 Pt     4.210821    0.810373    6.000000    ( 0.0000,  0.0000,  0.0000)
   2 Pt     7.018035    0.810373    6.000000    ( 0.0000,  0.0000,  0.0000)
   3 Pt     2.807214    3.241491    6.000000    ( 0.0000,  0.0000,  0.0000)
   4 Pt     5.614428    3.241491    6.000000    ( 0.0000,  0.0000,  0.0000)
   5 Pt     8.421642    3.241491    6.000000    ( 0.0000,  0.0000,  0.0000)
   6 Pt     4.210821    5.672610    6.000000    ( 0.0000,  0.0000,  0.0000)
   7 Pt     7.018035    5.672610    6.000000    ( 0.0000,  0.0000,  0.0000)
   8 Pt     9.825249    5.672610    6.000000    ( 0.0000,  0.0000,  0.0000)
   9 Pt    -0.000000    1.620746    8.292081    ( 0.0000,  0.0000,  0.0000)
  10 Pt     2.807214    1.620746    8.292081    ( 0.0000,  0.0000,  0.0000)
  11 Pt     5.614428    1.620746    8.292081    ( 0.0000,  0.0000,  0.0000)
  12 Pt     1.403607    4.051864    8.292081    ( 0.0000,  0.0000,  0.0000)
  13 Pt     4.210821    4.051864    8.292081    ( 0.0000,  0.0000,  0.0000)
  14 Pt     7.018035    4.051864    8.292081    ( 0.0000,  0.0000,  0.0000)
  15 Pt     2.807214    6.482983    8.292081    ( 0.0000,  0.0000,  0.0000)
  16 Pt     5.614428    6.482983    8.292081    ( 0.0000,  0.0000,  0.0000)
  17 Pt     8.421642    6.482983    8.292081    ( 0.0000,  0.0000,  0.0000)
  18 Pt     0.000000    0.000000   10.584161    ( 0.0000,  0.0000,  0.0000)
  19 Pt     2.807214    0.000000   10.584161    ( 0.0000,  0.0000,  0.0000)
  20 Pt     5.614428    0.000000   10.584161    ( 0.0000,  0.0000,  0.0000)
  21 Pt     1.403607    2.431119   10.584161    ( 0.0000,  0.0000,  0.0000)
  22 Pt     4.210821    2.431119   10.584161    ( 0.0000,  0.0000,  0.0000)
  23 Pt     7.018035    2.431119   10.584161    ( 0.0000,  0.0000,  0.0000)
  24 Pt     2.807214    4.862237   10.584161    ( 0.0000,  0.0000,  0.0000)
  25 Pt     5.614428    4.862237   10.584161    ( 0.0000,  0.0000,  0.0000)
  26 Pt     8.421642    4.862237   10.584161    ( 0.0000,  0.0000,  0.0000)
  27 O      2.807214    1.620746   13.734501    ( 0.0000,  0.0000,  0.0000)
  28 C      2.807300    1.620796   12.555266    ( 0.0000,  0.0000,  0.0000)

Unit cell:
           periodic     x           y           z      points  spacing
  1. axis:    yes    8.421642    0.000000    0.000000    42     0.1737
  2. axis:    yes    4.210821    7.293356    0.000000    42     0.1737
  3. axis:    no     0.000000    0.000000   16.584161    84     0.1974

  Lengths:   8.421642   8.421642  16.584161
  Angles:   90.000000  90.000000  60.000000

Effective grid spacing dv^(1/3) = 0.1901

     iter     time        total  log10-change:
                         energy  eigst   dens
iter:   1 13:00:37  -176.657269  -5.69
iter:   2 13:00:45  -176.660202  -5.09  -3.50
iter:   3 13:00:53  -176.655733c -5.68  -3.30
iter:   4 13:01:01  -176.655733c -7.01  -4.58c
iter:   5 13:01:09  -176.655739c -7.84c -4.75c

Converged after 5 iterations.

Dipole moment: (-0.649345, -0.374899, -0.033966) |e|*Ang

Energy contributions relative to reference atoms: (reference = -13513203.275138)

Kinetic:       -307.575980
Potential:     +232.674239
External:        +0.000000
XC:             -86.229965
Entropy (-ST):   -1.762437
Local:          -14.642815
--------------------------
Free energy:   -177.536958
Extrapolated:  -176.655739

Showing only first 2 kpts
 Kpt  Band  Eigenvalues  Occupancy
  0   219      1.44475    1.39357
  0   220      1.46908    1.28617
  0   221      1.49153    1.18016
  0   222      1.50788    1.10007

  1   219      1.29022    1.83017
  1   220      1.32878    1.75985
  1   221      1.35160    1.70732
  1   222      1.39539    1.58025


Fermi level: 1.52796

No gap

Forces in eV/Ang:
  0 Pt   -0.02078   -0.01199   -0.03920
  1 Pt    0.02144   -0.01451   -0.04550
  2 Pt   -0.00675    0.00896   -0.12965
  3 Pt   -0.00185    0.02582   -0.04550
  4 Pt    0.00096    0.00055   -0.04639
  5 Pt    0.00403    0.00240   -0.05175
  6 Pt    0.00439   -0.01032   -0.12965
  7 Pt    0.00410    0.00228   -0.05175
  8 Pt   -0.01704   -0.00984   -0.12319
  9 Pt    0.05352    0.02116    0.03919
 10 Pt   -0.00140   -0.00081   -0.27505
 11 Pt   -0.04916    0.02393    0.05740
 12 Pt    0.00583   -0.06890    0.04668
 13 Pt   -0.00385   -0.05454    0.05740
 14 Pt   -0.00275   -0.00159    0.00950
 15 Pt    0.00424    0.00245   -0.08447
 16 Pt    0.04509    0.03577    0.03919
 17 Pt   -0.05676    0.03950    0.04668
 18 Pt   -0.15796   -0.09120   -0.00142
 19 Pt    0.01070    0.14591    0.91444
 20 Pt    0.15604   -0.09543   -0.00975
 21 Pt    0.13172   -0.06369    0.91444
 22 Pt   -0.12258   -0.07077    0.91271
 23 Pt    0.00321    0.01320    0.02174
 24 Pt   -0.00463    0.18285   -0.00975
 25 Pt    0.01303   -0.00382    0.02174
 26 Pt   -0.01305   -0.00753    0.02441
 27 O     0.00025    0.00015   -2.10823
 28 C     0.00133    0.00077    0.05294

System changes: positions 

Initializing position-dependent things.

Density initialized from wave functions
                                            
                                            
                                            
                                            
                                            
                                            
               O                            
                                            
               C Pt     Pt     Pt           
                                            
            Pt    PPt    PPt   Pt           
       Pt    PPt    PPt    Pt               
                                            
        Pt     Pt    PPt    Pt    Pt        
                                            
                Pt     Pt     Pt            
           Pt     Pt     Pt                 
                                            
                                            
                                            
                                            

Positions:
   0 Pt     1.403607    0.810373    6.000000    ( 0.0000,  0.0000,  0.0000)
   1 Pt     4.210821    0.810373    6.000000    ( 0.0000,  0.0000,  0.0000)
   2 Pt     7.018035    0.810373    6.000000    ( 0.0000,  0.0000,  0.0000)
   3 Pt     2.807214    3.241491    6.000000    ( 0.0000,  0.0000,  0.0000)
   4 Pt     5.614428    3.241491    6.000000    ( 0.0000,  0.0000,  0.0000)
   5 Pt     8.421642    3.241491    6.000000    ( 0.0000,  0.0000,  0.0000)
   6 Pt     4.210821    5.672610    6.000000    ( 0.0000,  0.0000,  0.0000)
   7 Pt     7.018035    5.672610    6.000000    ( 0.0000,  0.0000,  0.0000)
   8 Pt     9.825249    5.672610    6.000000    ( 0.0000,  0.0000,  0.0000)
   9 Pt    -0.000000    1.620746    8.292081    ( 0.0000,  0.0000,  0.0000)
  10 Pt     2.807214    1.620746    8.292081    ( 0.0000,  0.0000,  0.0000)
  11 Pt     5.614428    1.620746    8.292081    ( 0.0000,  0.0000,  0.0000)
  12 Pt     1.403607    4.051864    8.292081    ( 0.0000,  0.0000,  0.0000)
  13 Pt     4.210821    4.051864    8.292081    ( 0.0000,  0.0000,  0.0000)
  14 Pt     7.018035    4.051864    8.292081    ( 0.0000,  0.0000,  0.0000)
  15 Pt     2.807214    6.482983    8.292081    ( 0.0000,  0.0000,  0.0000)
  16 Pt     5.614428    6.482983    8.292081    ( 0.0000,  0.0000,  0.0000)
  17 Pt     8.421642    6.482983    8.292081    ( 0.0000,  0.0000,  0.0000)
  18 Pt     0.000000    0.000000   10.584161    ( 0.0000,  0.0000,  0.0000)
  19 Pt     2.807214    0.000000   10.584161    ( 0.0000,  0.0000,  0.0000)
  20 Pt     5.614428    0.000000   10.584161    ( 0.0000,  0.0000,  0.0000)
  21 Pt     1.403607    2.431119   10.584161    ( 0.0000,  0.0000,  0.0000)
  22 Pt     4.210821    2.431119   10.584161    ( 0.0000,  0.0000,  0.0000)
  23 Pt     7.018035    2.431119   10.584161    ( 0.0000,  0.0000,  0.0000)
  24 Pt     2.807214    4.862237   10.584161    ( 0.0000,  0.0000,  0.0000)
  25 Pt     5.614428    4.862237   10.584161    ( 0.0000,  0.0000,  0.0000)
  26 Pt     8.421642    4.862237   10.584161    ( 0.0000,  0.0000,  0.0000)
  27 O      2.807214    1.620746   13.734501    ( 0.0000,  0.0000,  0.0000)
  28 C      2.807332    1.620814   12.555571    ( 0.0000,  0.0000,  0.0000)

Unit cell:
           periodic     x           y           z      points  spacing
  1. axis:    yes    8.421642    0.000000    0.000000    42     0.1737
  2. axis:    yes    4.210821    7.293356    0.000000    42     0.1737
  3. axis:    no     0.000000    0.000000   16.584161    84     0.1974

  Lengths:   8.421642   8.421642  16.584161
  Angles:   90.000000  90.000000  60.000000

Effective grid spacing dv^(1/3) = 0.1901

     iter     time        total  log10-change:
                         energy  eigst   dens
iter:   1 13:01:19  -176.655702  -6.51
iter:   2 13:01:27  -176.656052  -6.20  -4.05c
iter:   3 13:01:35  -176.655711c -6.80  -3.85
iter:   4 13:01:43  -176.655718c -7.85c -4.79c

Converged after 4 iterations.

Dipole moment: (-0.648737, -0.374549, -0.033972) |e|*Ang

Energy contributions relative to reference atoms: (reference = -13513203.275138)

Kinetic:       -307.769820
Potential:     +232.859937
External:        +0.000000
XC:             -86.221823
Entropy (-ST):   -1.762490
Local:          -14.642768
--------------------------
Free energy:   -177.536963
Extrapolated:  -176.655718

Showing only first 2 kpts
 Kpt  Band  Eigenvalues  Occupancy
  0   219      1.44489    1.39352
  0   220      1.46920    1.28617
  0   221      1.49165    1.18015
  0   222      1.50798    1.10019

  1   219      1.29032    1.83020
  1   220      1.32894    1.75979
  1   221      1.35173    1.70729
  1   222      1.39555    1.58014


Fermi level: 1.52808

No gap

Forces in eV/Ang:
  0 Pt   -0.02072   -0.01197   -0.03660
  1 Pt    0.02132   -0.01439   -0.04283
  2 Pt   -0.00671    0.00976   -0.12648
  3 Pt   -0.00180    0.02566   -0.04283
  4 Pt    0.00063    0.00036   -0.04386
  5 Pt    0.00428    0.00218   -0.04911
  6 Pt    0.00509   -0.01069   -0.12648
  7 Pt    0.00403    0.00262   -0.04911
  8 Pt   -0.01770   -0.01022   -0.11987
  9 Pt    0.05206    0.02061    0.03719
 10 Pt   -0.00148   -0.00086   -0.27663
 11 Pt   -0.04764    0.02335    0.05537
 12 Pt    0.00552   -0.06731    0.04468
 13 Pt   -0.00360   -0.05293    0.05537
 14 Pt   -0.00268   -0.00155    0.00899
 15 Pt    0.00423    0.00244   -0.08595
 16 Pt    0.04388    0.03478    0.03719
 17 Pt   -0.05553    0.03844    0.04468
 18 Pt   -0.15543   -0.08973    0.00356
 19 Pt    0.01066    0.15814    0.92071
 20 Pt    0.15358   -0.09402   -0.00479
 21 Pt    0.14228   -0.06984    0.92071
 22 Pt   -0.13319   -0.07690    0.91911
 23 Pt    0.00321    0.01328    0.02619
 24 Pt   -0.00464    0.18001   -0.00479
 25 Pt    0.01311   -0.00386    0.02619
 26 Pt   -0.01305   -0.00754    0.02889
 27 O     0.00027    0.00016   -2.06231
 28 C     0.00120    0.00069    0.01806

System changes: positions 

Initializing position-dependent things.

Density initialized from wave functions
                                            
                                            
                                            
                                            
                                            
                                            
               O                            
                                            
               C Pt     Pt     Pt           
                                            
            Pt    PPt    PPt   Pt           
       Pt    PPt    PPt    Pt               
                                            
        Pt     Pt    PPt    Pt    Pt        
                                            
                Pt     Pt     Pt            
           Pt     Pt     Pt                 
                                            
                                            
                                            
                                            

Positions:
   0 Pt     1.403607    0.810373    6.000000    ( 0.0000,  0.0000,  0.0000)
   1 Pt     4.210821    0.810373    6.000000    ( 0.0000,  0.0000,  0.0000)
   2 Pt     7.018035    0.810373    6.000000    ( 0.0000,  0.0000,  0.0000)
   3 Pt     2.807214    3.241491    6.000000    ( 0.0000,  0.0000,  0.0000)
   4 Pt     5.614428    3.241491    6.000000    ( 0.0000,  0.0000,  0.0000)
   5 Pt     8.421642    3.241491    6.000000    ( 0.0000,  0.0000,  0.0000)
   6 Pt     4.210821    5.672610    6.000000    ( 0.0000,  0.0000,  0.0000)
   7 Pt     7.018035    5.672610    6.000000    ( 0.0000,  0.0000,  0.0000)
   8 Pt     9.825249    5.672610    6.000000    ( 0.0000,  0.0000,  0.0000)
   9 Pt    -0.000000    1.620746    8.292081    ( 0.0000,  0.0000,  0.0000)
  10 Pt     2.807214    1.620746    8.292081    ( 0.0000,  0.0000,  0.0000)
  11 Pt     5.614428    1.620746    8.292081    ( 0.0000,  0.0000,  0.0000)
  12 Pt     1.403607    4.051864    8.292081    ( 0.0000,  0.0000,  0.0000)
  13 Pt     4.210821    4.051864    8.292081    ( 0.0000,  0.0000,  0.0000)
  14 Pt     7.018035    4.051864    8.292081    ( 0.0000,  0.0000,  0.0000)
  15 Pt     2.807214    6.482983    8.292081    ( 0.0000,  0.0000,  0.0000)
  16 Pt     5.614428    6.482983    8.292081    ( 0.0000,  0.0000,  0.0000)
  17 Pt     8.421642    6.482983    8.292081    ( 0.0000,  0.0000,  0.0000)
  18 Pt     0.000000    0.000000   10.584161    ( 0.0000,  0.0000,  0.0000)
  19 Pt     2.807214    0.000000   10.584161    ( 0.0000,  0.0000,  0.0000)
  20 Pt     5.614428    0.000000   10.584161    ( 0.0000,  0.0000,  0.0000)
  21 Pt     1.403607    2.431119   10.584161    ( 0.0000,  0.0000,  0.0000)
  22 Pt     4.210821    2.431119   10.584161    ( 0.0000,  0.0000,  0.0000)
  23 Pt     7.018035    2.431119   10.584161    ( 0.0000,  0.0000,  0.0000)
  24 Pt     2.807214    4.862237   10.584161    ( 0.0000,  0.0000,  0.0000)
  25 Pt     5.614428    4.862237   10.584161    ( 0.0000,  0.0000,  0.0000)
  26 Pt     8.421642    4.862237   10.584161    ( 0.0000,  0.0000,  0.0000)
  27 O      2.807214    1.620746   13.734501    ( 0.0000,  0.0000,  0.0000)
  28 C      2.807341    1.620819   12.555644    ( 0.0000,  0.0000,  0.0000)

Unit cell:
           periodic     x           y           z      points  spacing
  1. axis:    yes    8.421642    0.000000    0.000000    42     0.1737
  2. axis:    yes    4.210821    7.293356    0.000000    42     0.1737
  3. axis:    no     0.000000    0.000000   16.584161    84     0.1974

  Lengths:   8.421642   8.421642  16.584161
  Angles:   90.000000  90.000000  60.000000

Effective grid spacing dv^(1/3) = 0.1901

     iter     time        total  log10-change:
                         energy  eigst   dens
iter:   1 13:01:53  -176.655638  -6.89
iter:   2 13:02:01  -176.655706  -8.08c -4.56c
iter:   3 13:02:08  -176.655725c -7.86c -4.69c

Converged after 3 iterations.

Dipole moment: (-0.651310, -0.376034, -0.032220) |e|*Ang

Energy contributions relative to reference atoms: (reference = -13513203.275138)

Kinetic:       -307.600485
Potential:     +232.706097
External:        +0.000000
XC:             -86.233136
Entropy (-ST):   -1.762492
Local:          -14.646954
--------------------------
Free energy:   -177.536970
Extrapolated:  -176.655725

Showing only first 2 kpts
 Kpt  Band  Eigenvalues  Occupancy
  0   219      1.44560    1.39328
  0   220      1.46985    1.28620
  0   221      1.49231    1.18015
  0   222      1.50865    1.10008

  1   219      1.29110    1.83002
  1   220      1.32953    1.75993
  1   221      1.35235    1.70738
  1   222      1.39616    1.58029


Fermi level: 1.52874

No gap

Forces in eV/Ang:
  0 Pt   -0.02058   -0.01188   -0.04011
  1 Pt    0.02121   -0.01439   -0.04635
  2 Pt   -0.00671    0.00921   -0.13000
  3 Pt   -0.00186    0.02557   -0.04635
  4 Pt    0.00080    0.00046   -0.04708
  5 Pt    0.00418    0.00228   -0.05246
  6 Pt    0.00462   -0.01041   -0.13000
  7 Pt    0.00406    0.00248   -0.05246
  8 Pt   -0.01721   -0.00994   -0.12354
  9 Pt    0.05330    0.02112    0.04300
 10 Pt   -0.00143   -0.00083   -0.27371
 11 Pt   -0.04893    0.02390    0.06120
 12 Pt    0.00571   -0.06865    0.05050
 13 Pt   -0.00377   -0.05432    0.06120
 14 Pt   -0.00271   -0.00156    0.01377
 15 Pt    0.00423    0.00244   -0.07997
 16 Pt    0.04494    0.03560    0.04300
 17 Pt   -0.05660    0.03927    0.05050
 18 Pt   -0.15843   -0.09147   -0.00170
 19 Pt    0.01067    0.14611    0.91224
 20 Pt    0.15654   -0.09574   -0.01013
 21 Pt    0.13187   -0.06381    0.91224
 22 Pt   -0.12267   -0.07082    0.91049
 23 Pt    0.00322    0.01342    0.02176
 24 Pt   -0.00464    0.18344   -0.01013
 25 Pt    0.01323   -0.00393    0.02176
 26 Pt   -0.01323   -0.00764    0.02448
 27 O     0.00019    0.00011   -2.05193
 28 C     0.00087    0.00050    0.00452

Timing:                                      incl.     excl.
-------------------------------------------------------------------
Density initialized from wave functions:     2.650     2.529   0.3% |
 Symmetrize density:                         0.121     0.121   0.0% |
Forces:                                      9.699     9.699   1.2% |
Hamiltonian:                                 2.080     0.023   0.0% |
 Atomic:                                     1.003     0.503   0.1% |
  XC Correction:                             0.500     0.500   0.1% |
 Calculate atomic Hamiltonians:              0.527     0.527   0.1% |
 Communicate:                                0.017     0.017   0.0% |
 Initialize Hamiltonian:                     0.000     0.000   0.0% |
 Poisson:                                    0.006     0.006   0.0% |
 XC 3D grid:                                 0.504     0.504   0.1% |
LCAO initialization:                        13.170     0.315   0.0% |
 LCAO eigensolver:                           0.904     0.001   0.0% |
  Calculate projections:                     0.006     0.006   0.0% |
  DenseAtomicCorrection:                     0.007     0.007   0.0% |
  Distribute overlap matrix:                 0.145     0.145   0.0% |
  Orbital Layouts:                           0.233     0.233   0.0% |
  Potential matrix:                          0.486     0.486   0.1% |
  Sum over cells:                            0.026     0.026   0.0% |
 LCAO to grid:                              11.613    11.613   1.5% ||
 Set positions (LCAO WFS):                   0.339     0.137   0.0% |
  Basic WFS set positions:                   0.002     0.002   0.0% |
  Basis functions set positions:             0.000     0.000   0.0% |
  P tci:                                     0.124     0.124   0.0% |
  ST tci:                                    0.044     0.044   0.0% |
  mktci:                                     0.032     0.032   0.0% |
PWDescriptor:                                0.029     0.029   0.0% |
Redistribute:                                0.013     0.013   0.0% |
SCF-cycle:                                 752.422     1.015   0.1% |
 Davidson:                                 682.110   104.814  13.4% |----|
  Apply H:                                  57.697    55.973   7.1% |--|
   HMM T:                                    1.724     1.724   0.2% |
  Subspace diag:                           102.737     0.042   0.0% |
   calc_h_matrix:                           70.638    13.303   1.7% ||
    Apply H:                                57.335    55.597   7.1% |--|
     HMM T:                                  1.738     1.738   0.2% |
   diagonalize:                              9.249     9.249   1.2% |
   rotate_psi:                              22.808    22.808   2.9% ||
  calc. matrices:                          203.340    88.157  11.2% |---|
   Apply H:                                115.183   111.682  14.2% |-----|
    HMM T:                                   3.500     3.500   0.4% |
  diagonalize:                             167.444   167.444  21.3% |--------|
  rotate_psi:                               46.077    46.077   5.9% |-|
 Density:                                   39.756     0.002   0.0% |
  Atomic density matrices:                   0.336     0.336   0.0% |
  Mix:                                       9.045     9.045   1.2% |
  Multipole moments:                         0.018     0.018   0.0% |
  Pseudo density:                           30.354    28.577   3.6% ||
   Symmetrize density:                       1.777     1.777   0.2% |
 Hamiltonian:                               26.292     0.284   0.0% |
  Atomic:                                   12.789     6.418   0.8% |
   XC Correction:                            6.371     6.371   0.8% |
  Calculate atomic Hamiltonians:             6.659     6.659   0.8% |
  Communicate:                               0.252     0.252   0.0% |
  Poisson:                                   0.081     0.081   0.0% |
  XC 3D grid:                                6.227     6.227   0.8% |
 Orthonormalize:                             3.250     0.004   0.0% |
  calc_s_matrix:                             0.482     0.482   0.1% |
  inverse-cholesky:                          0.273     0.273   0.0% |
  projections:                               1.648     1.648   0.2% |
  rotate_psi_s:                              0.844     0.844   0.1% |
Set symmetry:                                0.002     0.002   0.0% |
Other:                                       4.751     4.751   0.6% |
-------------------------------------------------------------------
Total:                                               784.815 100.0%

Memory usage: 863.46 MiB
Date: Thu Mar  2 13:02:11 2023
