
  ___ ___ ___ _ _ _  
 |   |   |_  | | | | 
 | | | | | . | | | | 
 |__ |  _|___|_____|  22.8.0
 |___|_|             

User:   gotols@vera53-2
Date:   Fri Mar 10 08:40:17 2023
Arch:   x86_64
Pid:    3411029
CWD:    /cephyr/users/gotols/Vera/TIF320-Computational-materials-and-molecular-physics-Assignments
Python: 3.10.4
gpaw:   /apps/Arch/software/GPAW/22.8.0-foss-2022a/lib/python3.10/site-packages/gpaw
_gpaw:  /apps/Arch/software/GPAW/22.8.0-foss-2022a/lib/python3.10/site-packages/
        _gpaw.cpython-310-x86_64-linux-gnu.so
ase:    /apps/Arch/software/ASE/3.22.1-foss-2022a/lib/python3.10/site-packages/ase (version 3.22.1)
numpy:  /apps/Arch/software/SciPy-bundle/2022.05-foss-2022a/lib/python3.10/site-packages/numpy (version 1.22.3)
scipy:  /apps/Arch/software/SciPy-bundle/2022.05-foss-2022a/lib/python3.10/site-packages/scipy (version 1.8.1)
libxc:  5.2.3
units:  Angstrom and eV
cores: 16
OpenMP: False
OMP_NUM_THREADS: 1

Input parameters:
  kpts: [4 4 1]
  mode: {ecut: 450.00000000000006,
         name: pw}
  xc: PBE

System changes: positions, numbers, cell, pbc, initial_charges, initial_magmoms 

Initialize ...

species:
  Au:
    name: Gold
    id: b12133f335f6ca0d89c4b1ccaa844e9a
    Z: 79.0
    valence: 11
    core: 68
    charge: 0.0
    file: /apps/Common/software/GPAW-setups/0.9.20000/Au.PBE.gz
    compensation charges: {type: gauss,
                           rc: 0.42,
                           lmax: 2}
    cutoffs: {filter: 2.33,
              core: 2.81}
    valence states:
      #              energy  rcut
      - 6s(1.00)    -5.728   1.323
      - 6p(0.00)    -0.775   1.323
      - 5d(10.00)    -6.891   1.323
      -  s          21.484   1.323
      -  p          26.436   1.323
      -  d          20.321   1.323
  
    # Using partial waves for Au as LCAO basis

  O:
    name: Oxygen
    id: 32ecd46bf208036f09c70b0ec9a88b78
    Z: 8.0
    valence: 6
    core: 2
    charge: 0.0
    file: /apps/Common/software/GPAW-setups/0.9.20000/O.PBE.gz
    compensation charges: {type: gauss,
                           rc: 0.21,
                           lmax: 2}
    cutoffs: {filter: 1.17,
              core: 0.83}
    valence states:
      #              energy  rcut
      - 2s(2.00)   -23.961   0.688
      - 2p(4.00)    -9.029   0.598
      -  s           3.251   0.688
      -  p          18.182   0.598
      -  d           0.000   0.619
  
    # Using partial waves for O as LCAO basis

  C:
    name: Carbon
    id: 4aa54d4b901d75f77cc0ea3eec22967b
    Z: 6.0
    valence: 4
    core: 2
    charge: 0.0
    file: /apps/Common/software/GPAW-setups/0.9.20000/C.PBE.gz
    compensation charges: {type: gauss,
                           rc: 0.20,
                           lmax: 2}
    cutoffs: {filter: 1.14,
              core: 1.14}
    valence states:
      #              energy  rcut
      - 2s(2.00)   -13.751   0.635
      - 2p(2.00)    -5.284   0.635
      -  s          13.461   0.635
      -  p          21.927   0.635
      -  d           0.000   0.635
  
    # Using partial waves for C as LCAO basis

Reference energy: -13951221.800367  # eV

Spin-paired calculation

Convergence criteria:
 Maximum [total energy] change in last 3 cyles: 0.0005 eV / electron
 Maximum integral of absolute [dens]ity change: 0.0001 electrons / valence electron
 Maximum integral of absolute [eigenst]ate change: 4e-08 eV^2 / valence electron
 Maximum number of scf [iter]ations: 333
 (Square brackets indicate name in SCF output, whereas a 'c' in
 the SCF output indicates the quantity has converged.)

Symmetries present (total): 6

  ( 1  0  0)  ( 1 -1  0)  ( 0  1  0)  ( 0 -1  0)  (-1  1  0)  (-1  0  0)
  ( 0  1  0)  ( 0 -1  0)  ( 1  0  0)  ( 1 -1  0)  (-1  0  0)  (-1  1  0)
  ( 0  0  1)  ( 0  0  1)  ( 0  0  1)  ( 0  0  1)  ( 0  0  1)  ( 0  0  1)
Note: your k-points are not as symmetric as your crystal!

16 k-points: 4 x 4 x 1 Monkhorst-Pack grid
6 k-points in the irreducible part of the Brillouin zone
       k-points in crystal coordinates                weights
   0:     0.12500000   -0.12500000    0.00000000          2/16
   1:     0.12500000    0.12500000    0.00000000          2/16
   2:     0.37500000   -0.37500000    0.00000000          2/16
   3:     0.37500000   -0.12500000    0.00000000          4/16
   4:     0.37500000    0.12500000    0.00000000          4/16
   5:     0.37500000    0.37500000    0.00000000          2/16

Wave functions: Plane wave expansion
  Cutoff energy: 450.000 eV
  Number of coefficients (min, max): 24769, 24813
  Pulay-stress correction: 0.000000 eV/Ang^3 (de/decut=0.000000)
  Using FFTW library
  ScaLapack parameters: grid=1x1, blocksize=None
  Wavefunction extrapolation:
    Improved wavefunction reuse through dual PAW basis 

Occupation numbers: Fermi-Dirac:
  width: 0.1000  # eV
 

Eigensolver
   Davidson(niter=2) 

Densities:
  Coarse grid: 45*45*84 grid
  Fine grid: 90*90*168 grid
  Total Charge: 0.000000 

Density mixing:
  Method: separate
  Backend: pulay
  Linear mixing parameter: 0.05
  old densities: 5
  Damping of long wavelength oscillations: 50 

Hamiltonian:
  XC and Coulomb potentials evaluated on a 90*90*168 grid
  Using the PBE Exchange-Correlation functional
  External potential:
    NoExternalPotential
 

XC parameters: PBE with 2 nearest neighbor stencil

Memory estimate:
  Process memory now: 293.73 MiB
  Calculator: 316.57 MiB
    Density: 10.88 MiB
      Arrays: 4.23 MiB
      Localized functions: 4.95 MiB
      Mixer: 1.70 MiB
    Hamiltonian: 2.90 MiB
      Arrays: 2.77 MiB
      XC: 0.00 MiB
      Poisson: 0.00 MiB
      vbar: 0.13 MiB
    Wavefunctions: 302.79 MiB
      Arrays psit_nG: 214.68 MiB
      Eigensolver: 78.91 MiB
      Projections: 0.55 MiB
      Projectors: 1.77 MiB
      PW-descriptor: 6.88 MiB

Total number of cores used: 16
Parallelization over k-points: 2
Domain decomposition: 2 x 2 x 2

Number of atoms: 29
Number of atomic orbitals: 251
Number of bands in calculation: 189
Number of valence electrons: 307
Bands to converge: occupied

... initialized

Initializing position-dependent things.

Density initialized from atomic densities
Creating initial wave functions:
  189 bands from LCAO basis set

                                              
                                              
                                              
                                              
                                              
                                              
                                              
                                              
       O                                      
                  Au     Au     Au            
       C                                      
            Au     AAu    AAu    Au           
       Au     Au     AAu    Au                
                                              
        Au     Au     AAu    Au     Au        
                                              
                 Au     Au     Au             
                                              
           Au      Au     Au                  
                                              
                                              
                                              
                                              

Positions:
   0 Au     1.476793    0.852627    6.000000    ( 0.0000,  0.0000,  0.0000)
   1 Au     4.430378    0.852627    6.000000    ( 0.0000,  0.0000,  0.0000)
   2 Au     7.383963    0.852627    6.000000    ( 0.0000,  0.0000,  0.0000)
   3 Au     2.953585    3.410506    6.000000    ( 0.0000,  0.0000,  0.0000)
   4 Au     5.907170    3.410506    6.000000    ( 0.0000,  0.0000,  0.0000)
   5 Au     8.860755    3.410506    6.000000    ( 0.0000,  0.0000,  0.0000)
   6 Au     4.430378    5.968386    6.000000    ( 0.0000,  0.0000,  0.0000)
   7 Au     7.383963    5.968386    6.000000    ( 0.0000,  0.0000,  0.0000)
   8 Au    10.337548    5.968386    6.000000    ( 0.0000,  0.0000,  0.0000)
   9 Au    -0.000000    1.705253    8.411592    ( 0.0000,  0.0000,  0.0000)
  10 Au     2.953585    1.705253    8.411592    ( 0.0000,  0.0000,  0.0000)
  11 Au     5.907170    1.705253    8.411592    ( 0.0000,  0.0000,  0.0000)
  12 Au     1.476793    4.263133    8.411592    ( 0.0000,  0.0000,  0.0000)
  13 Au     4.430378    4.263133    8.411592    ( 0.0000,  0.0000,  0.0000)
  14 Au     7.383963    4.263133    8.411592    ( 0.0000,  0.0000,  0.0000)
  15 Au     2.953585    6.821012    8.411592    ( 0.0000,  0.0000,  0.0000)
  16 Au     5.907170    6.821012    8.411592    ( 0.0000,  0.0000,  0.0000)
  17 Au     8.860755    6.821012    8.411592    ( 0.0000,  0.0000,  0.0000)
  18 Au     0.000000    0.000000   10.823184    ( 0.0000,  0.0000,  0.0000)
  19 Au     2.953585    0.000000   10.823184    ( 0.0000,  0.0000,  0.0000)
  20 Au     5.907170    0.000000   10.823184    ( 0.0000,  0.0000,  0.0000)
  21 Au     1.476793    2.557880   10.823184    ( 0.0000,  0.0000,  0.0000)
  22 Au     4.430378    2.557880   10.823184    ( 0.0000,  0.0000,  0.0000)
  23 Au     7.383963    2.557880   10.823184    ( 0.0000,  0.0000,  0.0000)
  24 Au     2.953585    5.115759   10.823184    ( 0.0000,  0.0000,  0.0000)
  25 Au     5.907170    5.115759   10.823184    ( 0.0000,  0.0000,  0.0000)
  26 Au     8.860755    5.115759   10.823184    ( 0.0000,  0.0000,  0.0000)
  27 O      0.000000    0.000000   13.973524    ( 0.0000,  0.0000,  0.0000)
  28 C      0.000000    0.000000   12.823184    ( 0.0000,  0.0000,  0.0000)

Unit cell:
           periodic     x           y           z      points  spacing
  1. axis:    yes    8.860755    0.000000    0.000000    45     0.1705
  2. axis:    yes    4.430378    7.673639    0.000000    45     0.1705
  3. axis:    no     0.000000    0.000000   16.823184    84     0.2003

  Lengths:   8.860755   8.860755  16.823184
  Angles:   90.000000  90.000000  60.000000

Effective grid spacing dv^(1/3) = 0.1888

     iter     time        total  log10-change:
                         energy  eigst   dens
iter:   1 08:40:34  -100.915704
iter:   2 08:40:39   -99.091736  -1.62  -1.32
iter:   3 08:40:45   -94.742707  -1.75  -1.35
iter:   4 08:40:50   -93.537554  -2.09  -1.55
iter:   5 08:40:56   -93.350208  -2.02  -1.76
iter:   6 08:41:02   -93.216864  -3.00  -2.08
iter:   7 08:41:07   -93.246827c -3.10  -2.22
iter:   8 08:41:13   -93.197377c -3.74  -2.45
iter:   9 08:41:18   -93.163870c -3.43  -2.61
iter:  10 08:41:24   -93.161889c -4.72  -2.92
iter:  11 08:41:30   -93.159512c -4.58  -2.98
iter:  12 08:41:35   -93.159116c -4.30  -3.16
iter:  13 08:41:41   -93.158409c -5.57  -3.14
iter:  14 08:41:46   -93.157993c -5.11  -3.26
iter:  15 08:41:52   -93.157893c -5.41  -3.58
iter:  16 08:41:58   -93.157914c -5.59  -3.65
iter:  17 08:42:03   -93.157969c -6.41  -3.95
iter:  18 08:42:09   -93.157855c -6.04  -4.01c
iter:  19 08:42:15   -93.157878c -6.97  -4.19c
iter:  20 08:42:21   -93.157876c -7.64c -4.34c

Converged after 20 iterations.

Dipole moment: (-0.108210, -0.062475, 0.235331) |e|*Ang

Energy contributions relative to reference atoms: (reference = -13951221.800367)

Kinetic:       -291.029967
Potential:     +230.401702
External:        +0.000000
XC:             -35.410809
Entropy (-ST):   -0.307273
Local:           +3.034834
--------------------------
Free energy:    -93.311513
Extrapolated:   -93.157876

Showing only first 2 kpts
 Kpt  Band  Eigenvalues  Occupancy
  0   151     -0.14420    1.99999
  0   152      0.23917    1.99961
  0   153      0.56343    1.99006
  0   154      0.64346    1.97802

  1   151     -0.21802    2.00000
  1   152     -0.15458    1.99999
  1   153      0.01682    1.99996
  1   154      0.43329    1.99729


Fermi level: 1.09341

No gap

Forces in eV/Ang:
  0 Au    0.00402    0.00232   -0.07986
  1 Au    0.00000    0.01684   -0.02855
  2 Au   -0.00402    0.00232   -0.07986
  3 Au    0.01459   -0.00842   -0.02855
  4 Au   -0.01459   -0.00842   -0.02855
  5 Au   -0.00000    0.03063   -0.03215
  6 Au   -0.00000   -0.00464   -0.07986
  7 Au    0.02652   -0.01531   -0.03215
  8 Au   -0.02652   -0.01531   -0.03215
  9 Au    0.00000   -0.10535    0.09566
 10 Au    0.02279    0.01316    0.01239
 11 Au   -0.02279    0.01316    0.01239
 12 Au   -0.02109    0.01218   -0.02032
 13 Au   -0.00000   -0.02632    0.01239
 14 Au    0.02109    0.01218   -0.02032
 15 Au    0.09124    0.05268    0.09566
 16 Au   -0.09124    0.05268    0.09566
 17 Au    0.00000   -0.02435   -0.02032
 18 Au   -0.00000    0.00000   -0.33400
 19 Au    0.28665    0.01734   -0.02763
 20 Au   -0.28665    0.01734   -0.02763
 21 Au    0.15834    0.23958   -0.02763
 22 Au   -0.00000    0.00000    0.05085
 23 Au   -0.15834    0.23958   -0.02763
 24 Au   -0.12831   -0.25692   -0.02763
 25 Au    0.12831   -0.25692   -0.02763
 26 Au    0.00000    0.00000    0.02491
 27 O     0.00000   -0.00000   -0.29050
 28 C    -0.00000   -0.00000    0.94032

System changes: positions 

Initializing position-dependent things.

Density initialized from wave functions
                                              
                                              
                                              
                                              
                                              
                                              
                                              
                                              
       O                                      
       C          Au     Au     Au            
             Au     Au     Au                 
                   Au     Au     Au           
       Au     AAu    Au     Au                
                                              
        Au      Au    AAu    Au     Au        
                                              
                 Au     Au     Au             
                                              
           Au      Au     Au                  
                                              
                                              
                                              
                                              

Positions:
   0 Au     1.478034    0.853344    5.975337    ( 0.0000,  0.0000,  0.0000)
   1 Au     4.430378    0.857829    5.991182    ( 0.0000,  0.0000,  0.0000)
   2 Au     7.382721    0.853344    5.975337    ( 0.0000,  0.0000,  0.0000)
   3 Au     2.958090    3.407905    5.991182    ( 0.0000,  0.0000,  0.0000)
   4 Au     5.902665    3.407905    5.991182    ( 0.0000,  0.0000,  0.0000)
   5 Au     8.860755    3.419965    5.990070    ( 0.0000,  0.0000,  0.0000)
   6 Au     4.430378    5.966952    5.975337    ( 0.0000,  0.0000,  0.0000)
   7 Au     7.392154    5.963657    5.990070    ( 0.0000,  0.0000,  0.0000)
   8 Au    10.329356    5.963657    5.990070    ( 0.0000,  0.0000,  0.0000)
   9 Au    -0.000000    1.672716    8.441135    ( 0.0000,  0.0000,  0.0000)
  10 Au     2.960625    1.709318    8.415419    ( 0.0000,  0.0000,  0.0000)
  11 Au     5.900130    1.709318    8.415419    ( 0.0000,  0.0000,  0.0000)
  12 Au     1.470280    4.266893    8.405317    ( 0.0000,  0.0000,  0.0000)
  13 Au     4.430378    4.255004    8.415419    ( 0.0000,  0.0000,  0.0000)
  14 Au     7.390475    4.266893    8.405317    ( 0.0000,  0.0000,  0.0000)
  15 Au     2.981763    6.837281    8.441135    ( 0.0000,  0.0000,  0.0000)
  16 Au     5.878992    6.837281    8.441135    ( 0.0000,  0.0000,  0.0000)
  17 Au     8.860755    6.813492    8.405317    ( 0.0000,  0.0000,  0.0000)
  18 Au    -0.000000    0.000000   10.720031    ( 0.0000,  0.0000,  0.0000)
  19 Au     3.042115    0.005356   10.814652    ( 0.0000,  0.0000,  0.0000)
  20 Au     5.818640    0.005356   10.814652    ( 0.0000,  0.0000,  0.0000)
  21 Au     1.525695    2.631871   10.814652    ( 0.0000,  0.0000,  0.0000)
  22 Au     4.430378    2.557880   10.838889    ( 0.0000,  0.0000,  0.0000)
  23 Au     7.335060    2.631871   10.814652    ( 0.0000,  0.0000,  0.0000)
  24 Au     2.913958    5.036413   10.814652    ( 0.0000,  0.0000,  0.0000)
  25 Au     5.946797    5.036413   10.814652    ( 0.0000,  0.0000,  0.0000)
  26 Au     8.860755    5.115759   10.830877    ( 0.0000,  0.0000,  0.0000)
  27 O      0.000000   -0.000000   13.883808    ( 0.0000,  0.0000,  0.0000)
  28 C     -0.000000   -0.000000   13.113592    ( 0.0000,  0.0000,  0.0000)

Unit cell:
           periodic     x           y           z      points  spacing
  1. axis:    yes    8.860755    0.000000    0.000000    45     0.1705
  2. axis:    yes    4.430378    7.673639    0.000000    45     0.1705
  3. axis:    no     0.000000    0.000000   16.823184    84     0.2003

  Lengths:   8.860755   8.860755  16.823184
  Angles:   90.000000  90.000000  60.000000

Effective grid spacing dv^(1/3) = 0.1888

     iter     time        total  log10-change:
                         energy  eigst   dens
iter:   1 08:42:29   -81.006457  -0.83
iter:   2 08:42:34   -76.387780  -2.04  -1.57
iter:   3 08:42:40   -74.137421  -1.91  -1.79
iter:   4 08:42:45   -72.761235  -1.66  -2.05
iter:   5 08:42:51   -72.271157  -2.19  -2.00
iter:   6 08:42:57   -72.117630  -2.20  -2.14
iter:   7 08:43:02   -71.948540  -2.82  -2.38
iter:   8 08:43:08   -71.946020  -3.18  -2.72
iter:   9 08:43:14   -71.924035c -3.63  -2.77
iter:  10 08:43:20   -71.922590c -4.06  -2.92
iter:  11 08:43:25   -71.922458c -4.77  -3.08
iter:  12 08:43:31   -71.921399c -4.54  -3.16
iter:  13 08:43:37   -71.922848c -4.80  -3.38
iter:  14 08:43:42   -71.923148c -5.26  -3.34
iter:  15 08:43:48   -71.922809c -5.54  -3.44
iter:  16 08:43:54   -71.922246c -4.99  -3.55
iter:  17 08:43:59   -71.922110c -5.45  -3.60
iter:  18 08:44:05   -71.922071c -6.00  -3.86
iter:  19 08:44:10   -71.922081c -6.06  -4.05c
iter:  20 08:44:16   -71.922083c -6.64  -4.37c
iter:  21 08:44:22   -71.922077c -7.29  -4.50c
iter:  22 08:44:27   -71.922071c -7.96c -4.63c

Converged after 22 iterations.

Dipole moment: (-0.184473, -0.106506, 0.806035) |e|*Ang

Energy contributions relative to reference atoms: (reference = -13951221.800367)

Kinetic:       -166.606211
Potential:     +143.921483
External:        +0.000000
XC:             -52.007524
Entropy (-ST):   -0.290098
Local:           +2.915230
--------------------------
Free energy:    -72.067120
Extrapolated:   -71.922071

Showing only first 2 kpts
 Kpt  Band  Eigenvalues  Occupancy
  0   151      0.01653    1.99999
  0   152      0.29347    1.99986
  0   153      0.70038    1.99193
  0   154      0.80364    1.97751

  1   151     -0.09161    2.00000
  1   152      0.02522    1.99999
  1   153      0.13389    1.99997
  1   154      0.44778    1.99935


Fermi level: 1.25128

No gap

Forces in eV/Ang:
  0 Au   -0.01680   -0.00970    0.02627
  1 Au    0.00000   -0.01119   -0.01137
  2 Au    0.01680   -0.00970    0.02627
  3 Au   -0.00969    0.00560   -0.01137
  4 Au    0.00969    0.00560   -0.01137
  5 Au    0.00000   -0.09572    0.02871
  6 Au    0.00000    0.01940    0.02627
  7 Au   -0.08289    0.04786    0.02871
  8 Au    0.08289    0.04786    0.02871
  9 Au    0.00000    0.35372   -0.16016
 10 Au   -0.05537   -0.03197   -0.09436
 11 Au    0.05537   -0.03197   -0.09436
 12 Au   -0.02860    0.01652   -0.20833
 13 Au    0.00000    0.06394   -0.09436
 14 Au    0.02860    0.01652   -0.20833
 15 Au   -0.30633   -0.17686   -0.16016
 16 Au    0.30633   -0.17686   -0.16016
 17 Au    0.00000   -0.03303   -0.20833
 18 Au    0.00000    0.00000    1.16414
 19 Au   -0.47102   -0.00505    0.04275
 20 Au    0.47102   -0.00505    0.04275
 21 Au   -0.23988   -0.40539    0.04275
 22 Au   -0.00000    0.00000    0.12461
 23 Au    0.23988   -0.40539    0.04275
 24 Au    0.23114    0.41044    0.04275
 25 Au   -0.23114    0.41044    0.04275
 26 Au   -0.00000    0.00000    0.11728
 27 O     0.00000    0.00000  177.76924
 28 C     0.00000   -0.00000 -178.25665

System changes: positions 

Initializing position-dependent things.

Density initialized from wave functions
                                              
                                              
                                              
                                              
                                              
                                              
                                              
                                              
       O                                      
                 Au      Au     Au            
       C                                      
             Au    AAu    AAu    Au           
               Au    Au                       
       Au     Au            Au                
        Au      Au    AAu    Au     Au        
                                              
                 Au     Au     Au             
                                              
           Au      Au     Au                  
                                              
                                              
                                              
                                              

Positions:
   0 Au     1.478917    0.853853    5.957179    ( 0.0000,  0.0000,  0.0000)
   1 Au     4.430378    0.861647    5.984647    ( 0.0000,  0.0000,  0.0000)
   2 Au     7.381838    0.853853    5.957179    ( 0.0000,  0.0000,  0.0000)
   3 Au     2.961397    3.405996    5.984647    ( 0.0000,  0.0000,  0.0000)
   4 Au     5.899358    3.405996    5.984647    ( 0.0000,  0.0000,  0.0000)
   5 Au     8.860755    3.426755    5.982795    ( 0.0000,  0.0000,  0.0000)
   6 Au     4.430378    5.965932    5.957179    ( 0.0000,  0.0000,  0.0000)
   7 Au     7.398034    5.960262    5.982795    ( 0.0000,  0.0000,  0.0000)
   8 Au    10.323476    5.960262    5.982795    ( 0.0000,  0.0000,  0.0000)
   9 Au    -0.000000    1.649408    8.462625    ( 0.0000,  0.0000,  0.0000)
  10 Au     2.965711    1.712254    8.418053    ( 0.0000,  0.0000,  0.0000)
  11 Au     5.895044    1.712254    8.418053    ( 0.0000,  0.0000,  0.0000)
  12 Au     1.465412    4.269703    8.400259    ( 0.0000,  0.0000,  0.0000)
  13 Au     4.430378    4.249131    8.418053    ( 0.0000,  0.0000,  0.0000)
  14 Au     7.395343    4.269703    8.400259    ( 0.0000,  0.0000,  0.0000)
  15 Au     3.001948    6.848935    8.462625    ( 0.0000,  0.0000,  0.0000)
  16 Au     5.858807    6.848935    8.462625    ( 0.0000,  0.0000,  0.0000)
  17 Au     8.860755    6.807871    8.400259    ( 0.0000,  0.0000,  0.0000)
  18 Au    -0.000000    0.000000   10.646226    ( 0.0000,  0.0000,  0.0000)
  19 Au     3.106531    0.009300   10.808439    ( 0.0000,  0.0000,  0.0000)
  20 Au     5.754224    0.009300   10.808439    ( 0.0000,  0.0000,  0.0000)
  21 Au     1.561320    2.685685   10.808439    ( 0.0000,  0.0000,  0.0000)
  22 Au     4.430378    2.557880   10.850740    ( 0.0000,  0.0000,  0.0000)
  23 Au     7.299435    2.685685   10.808439    ( 0.0000,  0.0000,  0.0000)
  24 Au     2.885166    4.978654   10.808439    ( 0.0000,  0.0000,  0.0000)
  25 Au     5.975589    4.978654   10.808439    ( 0.0000,  0.0000,  0.0000)
  26 Au     8.860755    5.115759   10.836797    ( 0.0000,  0.0000,  0.0000)
  27 O      0.000000   -0.000000   14.179468    ( 0.0000,  0.0000,  0.0000)
  28 C     -0.000000   -0.000000   12.965141    ( 0.0000,  0.0000,  0.0000)

Unit cell:
           periodic     x           y           z      points  spacing
  1. axis:    yes    8.860755    0.000000    0.000000    45     0.1705
  2. axis:    yes    4.430378    7.673639    0.000000    45     0.1705
  3. axis:    no     0.000000    0.000000   16.823184    84     0.2003

  Lengths:   8.860755   8.860755  16.823184
  Angles:   90.000000  90.000000  60.000000

Effective grid spacing dv^(1/3) = 0.1888

     iter     time        total  log10-change:
                         energy  eigst   dens
iter:   1 08:44:35  -158.266157  +0.70
iter:   2 08:44:41  -121.716887  -0.53  -1.19
iter:   3 08:44:47   -96.860839  -1.25  -1.51
iter:   4 08:44:52   -94.516123  -1.81  -1.70
iter:   5 08:44:58   -93.765779  -2.24  -1.83
iter:   6 08:45:04   -93.450727  -1.70  -2.06
iter:   7 08:45:09   -92.735911  -2.18  -1.94
iter:   8 08:45:15   -92.336136  -2.70  -2.26
iter:   9 08:45:21   -92.307927  -2.90  -2.56
iter:  10 08:45:26   -92.318600c -3.10  -2.67
iter:  11 08:45:32   -92.346096c -3.62  -2.73
iter:  12 08:45:38   -92.298997c -3.54  -2.81
iter:  13 08:45:43   -92.294949c -4.42  -3.02
iter:  14 08:45:49   -92.288857c -4.30  -3.06
iter:  15 08:45:55   -92.287526c -4.88  -3.26
iter:  16 08:46:00   -92.287850c -5.22  -3.38
iter:  17 08:46:06   -92.287195c -5.42  -3.60
iter:  18 08:46:12   -92.286899c -5.50  -3.73
iter:  19 08:46:17   -92.286910c -6.01  -3.86
iter:  20 08:46:23   -92.286928c -6.31  -4.00c
iter:  21 08:46:28   -92.286853c -6.95  -4.08c
iter:  22 08:46:34   -92.286807c -6.88  -4.22c
iter:  23 08:46:40   -92.286809c -7.11  -4.40c
iter:  24 08:46:45   -92.286810c -7.53c -4.50c

Converged after 24 iterations.

Dipole moment: (-0.243658, -0.140676, 0.174438) |e|*Ang

Energy contributions relative to reference atoms: (reference = -13951221.800367)

Kinetic:       -281.309080
Potential:     +221.053718
External:        +0.000000
XC:             -34.947221
Entropy (-ST):   -0.293262
Local:           +3.062403
--------------------------
Free energy:    -92.433441
Extrapolated:   -92.286810

Showing only first 2 kpts
 Kpt  Band  Eigenvalues  Occupancy
  0   151     -0.14725    1.99999
  0   152      0.12783    1.99983
  0   153      0.51751    1.99170
  0   154      0.64074    1.97182

  1   151     -0.27014    2.00000
  1   152     -0.13055    1.99999
  1   153     -0.04596    1.99997
  1   154      0.29999    1.99905


Fermi level: 1.06554

No gap

Forces in eV/Ang:
  0 Au   -0.02890   -0.01668    0.08242
  1 Au    0.00000   -0.03228    0.01253
  2 Au    0.02890   -0.01668    0.08242
  3 Au   -0.02795    0.01614    0.01253
  4 Au    0.02795    0.01614    0.01253
  5 Au    0.00000   -0.17254    0.06859
  6 Au    0.00000    0.03337    0.08242
  7 Au   -0.14942    0.08627    0.06859
  8 Au    0.14942    0.08627    0.06859
  9 Au    0.00000    0.78344   -0.43835
 10 Au   -0.10761   -0.06213   -0.15813
 11 Au    0.10761   -0.06213   -0.15813
 12 Au   -0.03422    0.01976   -0.34340
 13 Au    0.00000    0.12426   -0.15813
 14 Au    0.03422    0.01976   -0.34340
 15 Au   -0.67848   -0.39172   -0.43835
 16 Au    0.67848   -0.39172   -0.43835
 17 Au    0.00000   -0.03952   -0.34340
 18 Au    0.00000    0.00000    2.25902
 19 Au   -1.25793   -0.01667    0.09767
 20 Au    1.25793   -0.01667    0.09767
 21 Au   -0.64340   -1.08106    0.09767
 22 Au    0.00000    0.00000    0.15206
 23 Au    0.64340   -1.08106    0.09767
 24 Au    0.61452    1.09773    0.09767
 25 Au   -0.61452    1.09773    0.09767
 26 Au    0.00000    0.00000    0.15308
 27 O     0.00000    0.00000   -6.13672
 28 C     0.00000    0.00000    5.39583

System changes: positions 

Initializing position-dependent things.

Density initialized from wave functions
                                              
                                              
                                              
                                              
                                              
                                              
                                              
                                              
       O                                      
                  Au     Au     Au            
       C     Au            Au                 
                   AAu    Au     Au           
       Au     AAu    Au     Au                
                                              
        Au      Au    AAu    Au     Au        
                                              
                 Au     Au     Au             
                                              
           Au      Au     Au                  
                                              
                                              
                                              
                                              

Positions:
   0 Au     1.477906    0.853269    5.976422    ( 0.0000,  0.0000,  0.0000)
   1 Au     4.430378    0.857559    5.991510    ( 0.0000,  0.0000,  0.0000)
   2 Au     7.382849    0.853269    5.976422    ( 0.0000,  0.0000,  0.0000)
   3 Au     2.957856    3.408040    5.991510    ( 0.0000,  0.0000,  0.0000)
   4 Au     5.902899    3.408040    5.991510    ( 0.0000,  0.0000,  0.0000)
   5 Au     8.860755    3.419131    5.990608    ( 0.0000,  0.0000,  0.0000)
   6 Au     4.430378    5.967100    5.976422    ( 0.0000,  0.0000,  0.0000)
   7 Au     7.391432    5.964073    5.990608    ( 0.0000,  0.0000,  0.0000)
   8 Au    10.330078    5.964073    5.990608    ( 0.0000,  0.0000,  0.0000)
   9 Au    -0.000000    1.676068    8.438896    ( 0.0000,  0.0000,  0.0000)
  10 Au     2.960069    1.708997    8.414819    ( 0.0000,  0.0000,  0.0000)
  11 Au     5.900686    1.708997    8.414819    ( 0.0000,  0.0000,  0.0000)
  12 Au     1.470399    4.266824    8.404519    ( 0.0000,  0.0000,  0.0000)
  13 Au     4.430378    4.255646    8.414819    ( 0.0000,  0.0000,  0.0000)
  14 Au     7.390356    4.266824    8.404519    ( 0.0000,  0.0000,  0.0000)
  15 Au     2.978860    6.835605    8.438896    ( 0.0000,  0.0000,  0.0000)
  16 Au     5.881895    6.835605    8.438896    ( 0.0000,  0.0000,  0.0000)
  17 Au     8.860755    6.813629    8.404519    ( 0.0000,  0.0000,  0.0000)
  18 Au    -0.000000    0.000000   10.730146    ( 0.0000,  0.0000,  0.0000)
  19 Au     3.035549    0.005124   10.815225    ( 0.0000,  0.0000,  0.0000)
  20 Au     5.825206    0.005124   10.815225    ( 0.0000,  0.0000,  0.0000)
  21 Au     1.522212    2.626301   10.815225    ( 0.0000,  0.0000,  0.0000)
  22 Au     4.430378    2.557880   10.838819    ( 0.0000,  0.0000,  0.0000)
  23 Au     7.338543    2.626301   10.815225    ( 0.0000,  0.0000,  0.0000)
  24 Au     2.917040    5.042215   10.815225    ( 0.0000,  0.0000,  0.0000)
  25 Au     5.943715    5.042215   10.815225    ( 0.0000,  0.0000,  0.0000)
  26 Au     8.860755    5.115759   10.831083    ( 0.0000,  0.0000,  0.0000)
  27 O      0.000000   -0.000000   14.023552    ( 0.0000,  0.0000,  0.0000)
  28 C     -0.000000   -0.000000   12.964619    ( 0.0000,  0.0000,  0.0000)

Unit cell:
           periodic     x           y           z      points  spacing
  1. axis:    yes    8.860755    0.000000    0.000000    45     0.1705
  2. axis:    yes    4.430378    7.673639    0.000000    45     0.1705
  3. axis:    no     0.000000    0.000000   16.823184    84     0.2003

  Lengths:   8.860755   8.860755  16.823184
  Angles:   90.000000  90.000000  60.000000

Effective grid spacing dv^(1/3) = 0.1888

     iter     time        total  log10-change:
                         energy  eigst   dens
iter:   1 08:46:53   -97.437781  -1.27
iter:   2 08:46:59   -95.516309  -2.58  -1.81
iter:   3 08:47:04   -93.286498  -1.78  -1.96
iter:   4 08:47:10   -92.927938  -2.46  -2.17
iter:   5 08:47:16   -92.718448  -2.73  -2.19
iter:   6 08:47:21   -92.675234  -3.10  -2.51
iter:   7 08:47:27   -92.607032c -3.25  -2.56
iter:   8 08:47:32   -92.604034c -4.21  -2.96
iter:   9 08:47:38   -92.600289c -4.68  -3.01
iter:  10 08:47:44   -92.596626c -4.12  -3.08
iter:  11 08:47:50   -92.596870c -4.78  -3.31
iter:  12 08:47:55   -92.596081c -5.53  -3.41
iter:  13 08:48:01   -92.595753c -5.08  -3.50
iter:  14 08:48:07   -92.595797c -6.02  -3.74
iter:  15 08:48:12   -92.595783c -6.53  -3.81
iter:  16 08:48:18   -92.595778c -6.24  -3.87
iter:  17 08:48:23   -92.595710c -5.92  -3.98
iter:  18 08:48:29   -92.595710c -7.29  -4.46c
iter:  19 08:48:35   -92.595714c -7.45c -4.53c

Converged after 19 iterations.

Dipole moment: (-0.229040, -0.132236, 0.450634) |e|*Ang

Energy contributions relative to reference atoms: (reference = -13951221.800367)

Kinetic:       -275.721188
Potential:     +218.124930
External:        +0.000000
XC:             -37.847018
Entropy (-ST):   -0.296338
Local:           +2.995731
--------------------------
Free energy:    -92.743883
Extrapolated:   -92.595714

Showing only first 2 kpts
 Kpt  Band  Eigenvalues  Occupancy
  0   151     -0.08613    1.99999
  0   152      0.22829    1.99981
  0   153      0.60775    1.99167
  0   154      0.70697    1.97770

  1   151     -0.18122    2.00000
  1   152     -0.07563    1.99999
  1   153      0.04768    1.99997
  1   154      0.39485    1.99901


Fermi level: 1.15545

No gap

Forces in eV/Ang:
  0 Au   -0.01495   -0.00863    0.01761
  1 Au   -0.00000   -0.00825   -0.00988
  2 Au    0.01495   -0.00863    0.01761
  3 Au   -0.00715    0.00413   -0.00988
  4 Au    0.00715    0.00413   -0.00988
  5 Au   -0.00000   -0.08341    0.02307
  6 Au    0.00000    0.01727    0.01761
  7 Au   -0.07224    0.04171    0.02307
  8 Au    0.07224    0.04171    0.02307
  9 Au    0.00000    0.28314   -0.12244
 10 Au   -0.04759   -0.02748   -0.08127
 11 Au    0.04759   -0.02748   -0.08127
 12 Au   -0.02402    0.01387   -0.18025
 13 Au   -0.00000    0.05496   -0.08127
 14 Au    0.02402    0.01387   -0.18025
 15 Au   -0.24521   -0.14157   -0.12244
 16 Au    0.24521   -0.14157   -0.12244
 17 Au   -0.00000   -0.02774   -0.18025
 18 Au    0.00000    0.00000    1.14146
 19 Au   -0.37051   -0.00486    0.02927
 20 Au    0.37051   -0.00486    0.02927
 21 Au   -0.18946   -0.31844    0.02927
 22 Au   -0.00000    0.00000    0.10316
 23 Au    0.18946   -0.31844    0.02927
 24 Au    0.18105    0.32330    0.02927
 25 Au   -0.18105    0.32330    0.02927
 26 Au   -0.00000    0.00000    0.09346
 27 O     0.00000    0.00000   12.40975
 28 C    -0.00000   -0.00000  -12.92757

System changes: positions 

Initializing position-dependent things.

Density initialized from wave functions
                                              
                                              
                                              
                                              
                                              
                                              
                                              
                                              
       O          Au     Au     Au            
       C                                      
            Au     AAu    AAu    Au           
       Au                                     
              Au     AAu    Au                
        Au     Au     AAu    Au     Au        
                                              
                 Au     Au     Au             
                                              
           Au      Au     Au                  
                                              
                                              
                                              
                                              

Positions:
   0 Au     1.475069    0.851632    6.043243    ( 0.0000,  0.0000,  0.0000)
   1 Au     4.430378    0.843747    6.015838    ( 0.0000,  0.0000,  0.0000)
   2 Au     7.385686    0.851632    6.043243    ( 0.0000,  0.0000,  0.0000)
   3 Au     2.945895    3.414946    6.015838    ( 0.0000,  0.0000,  0.0000)
   4 Au     5.914860    3.414946    6.015838    ( 0.0000,  0.0000,  0.0000)
   5 Au     8.860755    3.396482    6.016796    ( 0.0000,  0.0000,  0.0000)
   6 Au     4.430378    5.970376    6.043243    ( 0.0000,  0.0000,  0.0000)
   7 Au     7.371818    5.975398    6.016796    ( 0.0000,  0.0000,  0.0000)
   8 Au    10.349693    5.975398    6.016796    ( 0.0000,  0.0000,  0.0000)
   9 Au    -0.000000    1.750898    8.365279    ( 0.0000,  0.0000,  0.0000)
  10 Au     2.942742    1.698993    8.407525    ( 0.0000,  0.0000,  0.0000)
  11 Au     5.918013    1.698993    8.407525    ( 0.0000,  0.0000,  0.0000)
  12 Au     1.489224    4.255956    8.429122    ( 0.0000,  0.0000,  0.0000)
  13 Au     4.430378    4.275653    8.407525    ( 0.0000,  0.0000,  0.0000)
  14 Au     7.371531    4.255956    8.429122    ( 0.0000,  0.0000,  0.0000)
  15 Au     2.914055    6.798190    8.365279    ( 0.0000,  0.0000,  0.0000)
  16 Au     5.946700    6.798190    8.365279    ( 0.0000,  0.0000,  0.0000)
  17 Au     8.860755    6.835367    8.429122    ( 0.0000,  0.0000,  0.0000)
  18 Au     0.000000   -0.000000   10.969422    ( 0.0000,  0.0000,  0.0000)
  19 Au     2.814049   -0.009403   10.836991    ( 0.0000,  0.0000,  0.0000)
  20 Au     6.046706   -0.009403   10.836991    ( 0.0000,  0.0000,  0.0000)
  21 Au     1.398882    2.441740   10.836991    ( 0.0000,  0.0000,  0.0000)
  22 Au     4.430378    2.557880   10.791866    ( 0.0000,  0.0000,  0.0000)
  23 Au     7.461873    2.441740   10.836991    ( 0.0000,  0.0000,  0.0000)
  24 Au     3.015210    5.241302   10.836991    ( 0.0000,  0.0000,  0.0000)
  25 Au     5.845545    5.241302   10.836991    ( 0.0000,  0.0000,  0.0000)
  26 Au     8.860755    5.115759   10.806390    ( 0.0000,  0.0000,  0.0000)
  27 O     -0.000000    0.000000   13.651663    ( 0.0000,  0.0000,  0.0000)
  28 C      0.000000    0.000000   12.796967    ( 0.0000,  0.0000,  0.0000)

Unit cell:
           periodic     x           y           z      points  spacing
  1. axis:    yes    8.860755    0.000000    0.000000    45     0.1705
  2. axis:    yes    4.430378    7.673639    0.000000    45     0.1705
  3. axis:    no     0.000000    0.000000   16.823184    84     0.2003

  Lengths:   8.860755   8.860755  16.823184
  Angles:   90.000000  90.000000  60.000000

Effective grid spacing dv^(1/3) = 0.1888

     iter     time        total  log10-change:
                         energy  eigst   dens
iter:   1 08:48:42  -144.307991  -0.45
iter:   2 08:48:48   -91.353319  -0.91  -1.09
iter:   3 08:48:54   -87.196858  -1.65  -1.55
iter:   4 08:48:59   -83.975209  -1.52  -1.75
iter:   5 08:49:05   -82.851223  -1.84  -1.94
iter:   6 08:49:10   -82.589111  -2.47  -2.05
iter:   7 08:49:16   -82.207686  -1.90  -2.14
iter:   8 08:49:22   -82.164440  -2.17  -2.34
iter:   9 08:49:27   -82.121768c -3.07  -2.53
iter:  10 08:49:33   -82.100361c -3.53  -2.66
iter:  11 08:49:39   -82.089533c -3.75  -2.77
iter:  12 08:49:44   -82.088784c -3.81  -2.94
iter:  13 08:49:50   -82.088056c -4.79  -3.13
iter:  14 08:49:55   -82.086903c -4.25  -3.20
iter:  15 08:50:01   -82.086775c -5.18  -3.36
iter:  16 08:50:07   -82.086582c -5.09  -3.43
iter:  17 08:50:12   -82.086582c -5.56  -3.73
iter:  18 08:50:18   -82.086502c -5.61  -3.90
iter:  19 08:50:23   -82.086440c -6.17  -4.01c
iter:  20 08:50:29   -82.086404c -6.27  -4.13c
iter:  21 08:50:35   -82.086394c -6.98  -4.32c
iter:  22 08:50:40   -82.086392c -7.63c -4.36c

Converged after 22 iterations.

Dipole moment: (0.336078, 0.194035, 0.690863) |e|*Ang

Energy contributions relative to reference atoms: (reference = -13951221.800367)

Kinetic:       -186.809853
Potential:     +151.882976
External:        +0.000000
XC:             -50.008178
Entropy (-ST):   -0.303546
Local:           +3.000437
--------------------------
Free energy:    -82.238165
Extrapolated:   -82.086392

Showing only first 2 kpts
 Kpt  Band  Eigenvalues  Occupancy
  0   151      0.05507    1.99999
  0   152      0.46645    1.99919
  0   153      0.74669    1.98670
  0   154      0.80000    1.97744

  1   151     -0.02656    1.99999
  1   152     -0.00305    1.99999
  1   153      0.21262    1.99994
  1   154      0.67705    1.99335


Fermi level: 1.24733

No gap

Forces in eV/Ang:
  0 Au    0.04856    0.02804   -0.30345
  1 Au    0.00000    0.05695   -0.07926
  2 Au   -0.04856    0.02804   -0.30345
  3 Au    0.04932   -0.02848   -0.07926
  4 Au   -0.04932   -0.02848   -0.07926
  5 Au    0.00000    0.25148   -0.18375
  6 Au   -0.00000   -0.05607   -0.30345
  7 Au    0.21779   -0.12574   -0.18375
  8 Au   -0.21779   -0.12574   -0.18375
  9 Au    0.00000   -0.44126    0.33712
 10 Au    0.13453    0.07767    0.17649
 11 Au   -0.13453    0.07767    0.17649
 12 Au   -0.03934    0.02272    0.17134
 13 Au    0.00000   -0.15534    0.17649
 14 Au    0.03934    0.02272    0.17134
 15 Au    0.38215    0.22063    0.33712
 16 Au   -0.38215    0.22063    0.33712
 17 Au    0.00000   -0.04543    0.17134
 18 Au    0.00000    0.00000   -4.91702
 19 Au    1.15391    0.11374   -0.11962
 20 Au   -1.15391    0.11374   -0.11962
 21 Au    0.67546    0.94245   -0.11962
 22 Au    0.00000    0.00000    0.00108
 23 Au   -0.67546    0.94245   -0.11962
 24 Au   -0.47845   -1.05619   -0.11962
 25 Au    0.47845   -1.05619   -0.11962
 26 Au    0.00000    0.00000   -0.04535
 27 O     0.00000   -0.00000   97.42802
 28 C    -0.00000   -0.00000  -92.17510

System changes: positions 

Initializing position-dependent things.

Density initialized from wave functions
                                              
                                              
                                              
                                              
                                              
                                              
                                              
                                              
       O          Au     Au     Au            
                                              
       C    Au     AAu    AAu    Au           
       Au                                     
              Au     AAu    Au                
        Au     Au     AAu    Au     Au        
                                              
                 Au     Au     Au             
                                              
           Au      Au     Au                  
                                              
                                              
                                              
                                              

Positions:
   0 Au     1.474088    0.851065    6.071925    ( 0.0000,  0.0000,  0.0000)
   1 Au     4.430378    0.837856    6.026490    ( 0.0000,  0.0000,  0.0000)
   2 Au     7.386667    0.851065    6.071925    ( 0.0000,  0.0000,  0.0000)
   3 Au     2.940793    3.417892    6.026490    ( 0.0000,  0.0000,  0.0000)
   4 Au     5.919962    3.417892    6.026490    ( 0.0000,  0.0000,  0.0000)
   5 Au     8.860755    3.387917    6.027668    ( 0.0000,  0.0000,  0.0000)
   6 Au     4.430378    5.971508    6.071925    ( 0.0000,  0.0000,  0.0000)
   7 Au     7.364399    5.979681    6.027668    ( 0.0000,  0.0000,  0.0000)
   8 Au    10.357111    5.979681    6.027668    ( 0.0000,  0.0000,  0.0000)
   9 Au    -0.000000    1.779895    8.334981    ( 0.0000,  0.0000,  0.0000)
  10 Au     2.935875    1.695028    8.405553    ( 0.0000,  0.0000,  0.0000)
  11 Au     5.924880    1.695028    8.405553    ( 0.0000,  0.0000,  0.0000)
  12 Au     1.497715    4.251053    8.442289    ( 0.0000,  0.0000,  0.0000)
  13 Au     4.430378    4.283583    8.405553    ( 0.0000,  0.0000,  0.0000)
  14 Au     7.363040    4.251053    8.442289    ( 0.0000,  0.0000,  0.0000)
  15 Au     2.888943    6.783691    8.334981    ( 0.0000,  0.0000,  0.0000)
  16 Au     5.971812    6.783691    8.334981    ( 0.0000,  0.0000,  0.0000)
  17 Au     8.860755    6.845172    8.442289    ( 0.0000,  0.0000,  0.0000)
  18 Au     0.000000   -0.000000   11.050380    ( 0.0000,  0.0000,  0.0000)
  19 Au     2.723195   -0.015480   10.845991    ( 0.0000,  0.0000,  0.0000)
  20 Au     6.137561   -0.015480   10.845991    ( 0.0000,  0.0000,  0.0000)
  21 Au     1.348191    2.366096   10.845991    ( 0.0000,  0.0000,  0.0000)
  22 Au     4.430378    2.557880   10.770031    ( 0.0000,  0.0000,  0.0000)
  23 Au     7.512564    2.366096   10.845991    ( 0.0000,  0.0000,  0.0000)
  24 Au     3.055374    5.323023   10.845991    ( 0.0000,  0.0000,  0.0000)
  25 Au     5.805381    5.323023   10.845991    ( 0.0000,  0.0000,  0.0000)
  26 Au     8.860755    5.115759   10.794417    ( 0.0000,  0.0000,  0.0000)
  27 O     -0.000000    0.000000   13.738805    ( 0.0000,  0.0000,  0.0000)
  28 C      0.000000    0.000000   12.489052    ( 0.0000,  0.0000,  0.0000)

Unit cell:
           periodic     x           y           z      points  spacing
  1. axis:    yes    8.860755    0.000000    0.000000    45     0.1705
  2. axis:    yes    4.430378    7.673639    0.000000    45     0.1705
  3. axis:    no     0.000000    0.000000   16.823184    84     0.2003

  Lengths:   8.860755   8.860755  16.823184
  Angles:   90.000000  90.000000  60.000000

Effective grid spacing dv^(1/3) = 0.1888

     iter     time        total  log10-change:
                         energy  eigst   dens
iter:   1 08:50:48  -113.099437  +0.24
iter:   2 08:50:54  -100.914452  -1.06  -1.42
iter:   3 08:50:59   -91.845028  -1.52  -1.67
iter:   4 08:51:05   -85.985872  -1.13  -1.95
iter:   5 08:51:10   -85.223294  -2.34  -1.84
iter:   6 08:51:16   -84.946002  -1.77  -2.07
iter:   7 08:51:22   -84.468063  -2.46  -2.06
iter:   8 08:51:27   -84.410038  -2.66  -2.41
iter:   9 08:51:33   -84.380847c -2.98  -2.58
iter:  10 08:51:39   -84.343293c -3.69  -2.62
iter:  11 08:51:44   -84.344188c -3.83  -2.84
iter:  12 08:51:50   -84.342322c -4.58  -2.94
iter:  13 08:51:55   -84.339879c -4.21  -3.00
iter:  14 08:52:01   -84.341166c -4.53  -3.17
iter:  15 08:52:07   -84.341455c -4.98  -3.35
iter:  16 08:52:12   -84.340053c -4.80  -3.35
iter:  17 08:52:18   -84.339632c -5.02  -3.45
iter:  18 08:52:23   -84.339423c -5.44  -3.89
iter:  19 08:52:29   -84.339408c -6.35  -4.06c
iter:  20 08:52:34   -84.339464c -6.17  -4.08c
iter:  21 08:52:40   -84.339306c -6.18  -3.92
iter:  22 08:52:46   -84.339314c -7.16  -4.27c
iter:  23 08:52:51   -84.339320c -7.86c -4.37c

Converged after 23 iterations.

Dipole moment: (0.664555, 0.383681, -0.155180) |e|*Ang

Energy contributions relative to reference atoms: (reference = -13951221.800367)

Kinetic:       -175.322719
Potential:     +133.215101
External:        +0.000000
XC:             -45.540345
Entropy (-ST):   -0.303687
Local:           +3.460488
--------------------------
Free energy:    -84.491163
Extrapolated:   -84.339320

Showing only first 2 kpts
 Kpt  Band  Eigenvalues  Occupancy
  0   151     -0.13879    1.99997
  0   152      0.25691    1.99855
  0   153      0.53031    1.97788
  0   154      0.69514    1.89011

  1   151     -0.23532    1.99999
  1   152     -0.22893    1.99999
  1   153      0.00799    1.99988
  1   154      0.69238    1.89294


Fermi level: 0.97963

No gap

Forces in eV/Ang:
  0 Au    0.08187    0.04727   -0.50687
  1 Au    0.00000    0.07432   -0.10985
  2 Au   -0.08187    0.04727   -0.50687
  3 Au    0.06437   -0.03716   -0.10985
  4 Au   -0.06437   -0.03716   -0.10985
  5 Au   -0.00000    0.41483   -0.33043
  6 Au   -0.00000   -0.09454   -0.50687
  7 Au    0.35925   -0.20742   -0.33043
  8 Au   -0.35925   -0.20742   -0.33043
  9 Au    0.00000   -0.55806    0.44405
 10 Au    0.19930    0.11506    0.29058
 11 Au   -0.19930    0.11506    0.29058
 12 Au   -0.04672    0.02697    0.29373
 13 Au    0.00000   -0.23013    0.29058
 14 Au    0.04672    0.02697    0.29373
 15 Au    0.48329    0.27903    0.44405
 16 Au   -0.48329    0.27903    0.44405
 17 Au    0.00000   -0.05394    0.29373
 18 Au    0.00000    0.00000  -38.78314
 19 Au    2.06093    0.25601   -0.24073
 20 Au   -2.06093    0.25601   -0.24073
 21 Au    1.25217    1.65681   -0.24073
 22 Au    0.00000    0.00000   -0.03243
 23 Au   -1.25217    1.65681   -0.24073
 24 Au   -0.80876   -1.91282   -0.24073
 25 Au    0.80876   -1.91282   -0.24073
 26 Au   -0.00000   -0.00000   -0.08889
 27 O     0.00000    0.00000   -5.52339
 28 C     0.00000   -0.00000   45.73988

System changes: positions 

Initializing position-dependent things.

Density initialized from wave functions
                                              
                                              
                                              
                                              
                                              
                                              
                                              
                                              
       O                                      
                  Au     Au     Au            
       C    Au      Au     Au                 
                   Au     Au     Au           
       Au     Au     AAu    Au                
                                              
        Au     Au     AAu    Au     Au        
                                              
                 Au     Au     Au             
                                              
           Au      Au     Au                  
                                              
                                              
                                              
                                              

Positions:
   0 Au     1.475503    0.851882    6.036520    ( 0.0000,  0.0000,  0.0000)
   1 Au     4.430378    0.845061    6.013562    ( 0.0000,  0.0000,  0.0000)
   2 Au     7.385253    0.851882    6.036520    ( 0.0000,  0.0000,  0.0000)
   3 Au     2.947033    3.414289    6.013562    ( 0.0000,  0.0000,  0.0000)
   4 Au     5.913722    3.414289    6.013562    ( 0.0000,  0.0000,  0.0000)
   5 Au     8.860755    3.399320    6.013860    ( 0.0000,  0.0000,  0.0000)
   6 Au     4.430378    5.969875    6.036520    ( 0.0000,  0.0000,  0.0000)
   7 Au     7.374275    5.973979    6.013860    ( 0.0000,  0.0000,  0.0000)
   8 Au    10.347235    5.973979    6.013860    ( 0.0000,  0.0000,  0.0000)
   9 Au    -0.000000    1.744005    8.372054    ( 0.0000,  0.0000,  0.0000)
  10 Au     2.944626    1.700081    8.408788    ( 0.0000,  0.0000,  0.0000)
  11 Au     5.916129    1.700081    8.408788    ( 0.0000,  0.0000,  0.0000)
  12 Au     1.487514    4.256943    8.427607    ( 0.0000,  0.0000,  0.0000)
  13 Au     4.430378    4.273477    8.408788    ( 0.0000,  0.0000,  0.0000)
  14 Au     7.373241    4.256943    8.427607    ( 0.0000,  0.0000,  0.0000)
  15 Au     2.920025    6.801636    8.372054    ( 0.0000,  0.0000,  0.0000)
  16 Au     5.940731    6.801636    8.372054    ( 0.0000,  0.0000,  0.0000)
  17 Au     8.860755    6.833392    8.427607    ( 0.0000,  0.0000,  0.0000)
  18 Au     0.000000   -0.000000   10.891564    ( 0.0000,  0.0000,  0.0000)
  19 Au     2.835828   -0.007624   10.834745    ( 0.0000,  0.0000,  0.0000)
  20 Au     6.024927   -0.007624   10.834745    ( 0.0000,  0.0000,  0.0000)
  21 Au     1.411312    2.459711   10.834745    ( 0.0000,  0.0000,  0.0000)
  22 Au     4.430378    2.557880   10.795734    ( 0.0000,  0.0000,  0.0000)
  23 Au     7.449443    2.459711   10.834745    ( 0.0000,  0.0000,  0.0000)
  24 Au     3.005861    5.221552   10.834745    ( 0.0000,  0.0000,  0.0000)
  25 Au     5.854894    5.221552   10.834745    ( 0.0000,  0.0000,  0.0000)
  26 Au     8.860755    5.115759   10.808284    ( 0.0000,  0.0000,  0.0000)
  27 O     -0.000000    0.000000   13.839009    ( 0.0000,  0.0000,  0.0000)
  28 C      0.000000    0.000000   12.716268    ( 0.0000,  0.0000,  0.0000)

Unit cell:
           periodic     x           y           z      points  spacing
  1. axis:    yes    8.860755    0.000000    0.000000    45     0.1705
  2. axis:    yes    4.430378    7.673639    0.000000    45     0.1705
  3. axis:    no     0.000000    0.000000   16.823184    84     0.2003

  Lengths:   8.860755   8.860755  16.823184
  Angles:   90.000000  90.000000  60.000000

Effective grid spacing dv^(1/3) = 0.1888

     iter     time        total  log10-change:
                         energy  eigst   dens
iter:   1 08:52:59   -98.296338  -0.55
iter:   2 08:53:05   -95.668242  -1.88  -1.72
iter:   3 08:53:10   -92.694654  -1.61  -1.86
iter:   4 08:53:16   -92.490664  -2.64  -2.16
iter:   5 08:53:22   -92.380491  -3.11  -2.32
iter:   6 08:53:27   -92.265495  -2.59  -2.40
iter:   7 08:53:33   -92.210370  -3.23  -2.58
iter:   8 08:53:38   -92.208683c -3.72  -2.88
iter:   9 08:53:44   -92.205374c -4.62  -2.94
iter:  10 08:53:50   -92.203593c -3.98  -3.06
iter:  11 08:53:55   -92.203583c -4.93  -3.34
iter:  12 08:54:01   -92.202426c -4.89  -3.36
iter:  13 08:54:06   -92.202768c -5.04  -3.50
iter:  14 08:54:12   -92.202307c -5.16  -3.53
iter:  15 08:54:17   -92.202131c -5.43  -3.75
iter:  16 08:54:23   -92.202109c -6.18  -3.96
iter:  17 08:54:29   -92.202123c -6.36  -4.15c
iter:  18 08:54:34   -92.202136c -6.55  -4.25c
iter:  19 08:54:40   -92.202130c -7.46c -4.42c

Converged after 19 iterations.

Dipole moment: (0.218947, 0.126409, 0.240547) |e|*Ang

Energy contributions relative to reference atoms: (reference = -13951221.800367)

Kinetic:       -265.749528
Potential:     +209.433824
External:        +0.000000
XC:             -38.852901
Entropy (-ST):   -0.306053
Local:           +3.119501
--------------------------
Free energy:    -92.355156
Extrapolated:   -92.202130

Showing only first 2 kpts
 Kpt  Band  Eigenvalues  Occupancy
  0   151     -0.08630    1.99999
  0   152      0.31437    1.99923
  0   153      0.60239    1.98631
  0   154      0.66576    1.97435

  1   151     -0.17236    1.99999
  1   152     -0.14408    1.99999
  1   153      0.06882    1.99993
  1   154      0.54598    1.99219


Fermi level: 1.10010

No gap

Forces in eV/Ang:
  0 Au    0.04143    0.02392   -0.27431
  1 Au    0.00000    0.04828   -0.07118
  2 Au   -0.04143    0.02392   -0.27431
  3 Au    0.04181   -0.02414   -0.07118
  4 Au   -0.04181   -0.02414   -0.07118
  5 Au    0.00000    0.20781   -0.15044
  6 Au   -0.00000   -0.04784   -0.27431
  7 Au    0.17997   -0.10391   -0.15044
  8 Au   -0.17997   -0.10391   -0.15044
  9 Au    0.00000   -0.37735    0.26059
 10 Au    0.12026    0.06943    0.14226
 11 Au   -0.12026    0.06943    0.14226
 12 Au   -0.03527    0.02036    0.14216
 13 Au    0.00000   -0.13887    0.14226
 14 Au    0.03527    0.02036    0.14216
 15 Au    0.32680    0.18868    0.26059
 16 Au   -0.32680    0.18868    0.26059
 17 Au   -0.00000   -0.04073    0.14216
 18 Au    0.00000    0.00000   -3.87897
 19 Au    1.04075    0.08819   -0.09635
 20 Au   -1.04075    0.08819   -0.09635
 21 Au    0.59675    0.85722   -0.09635
 22 Au   -0.00000    0.00000    0.00784
 23 Au   -0.59675    0.85722   -0.09635
 24 Au   -0.44400   -0.94541   -0.09635
 25 Au    0.44400   -0.94541   -0.09635
 26 Au   -0.00000    0.00000   -0.03787
 27 O     0.00000    0.00000    3.34142
 28 C     0.00000   -0.00000    0.96949

System changes: positions 

Initializing position-dependent things.

Density initialized from wave functions
                                              
                                              
                                              
                                              
                                              
                                              
                                              
                                              
       O          Au     Au     Au            
       C                                      
            Au     AAu    AAu    Au           
       Au                                     
              Au     AAu    Au                
        Au     Au     AAu    Au     Au        
                                              
                 Au     Au     Au             
                                              
           Au      Au     Au                  
                                              
                                              
                                              
                                              

Positions:
   0 Au     1.475832    0.852072    5.996406    ( 0.0000,  0.0000,  0.0000)
   1 Au     4.430378    0.853603    5.997483    ( 0.0000,  0.0000,  0.0000)
   2 Au     7.384924    0.852072    5.996406    ( 0.0000,  0.0000,  0.0000)
   3 Au     2.954431    3.410018    5.997483    ( 0.0000,  0.0000,  0.0000)
   4 Au     5.906324    3.410018    5.997483    ( 0.0000,  0.0000,  0.0000)
   5 Au     8.860755    3.406903    6.000585    ( 0.0000,  0.0000,  0.0000)
   6 Au     4.430378    5.969495    5.996406    ( 0.0000,  0.0000,  0.0000)
   7 Au     7.380842    5.970187    6.000585    ( 0.0000,  0.0000,  0.0000)
   8 Au    10.340668    5.970187    6.000585    ( 0.0000,  0.0000,  0.0000)
   9 Au    -0.000000    1.706276    8.415016    ( 0.0000,  0.0000,  0.0000)
  10 Au     2.952648    1.704712    8.407248    ( 0.0000,  0.0000,  0.0000)
  11 Au     5.908107    1.704712    8.407248    ( 0.0000,  0.0000,  0.0000)
  12 Au     1.474045    4.264719    8.400322    ( 0.0000,  0.0000,  0.0000)
  13 Au     4.430378    4.264215    8.407248    ( 0.0000,  0.0000,  0.0000)
  14 Au     7.386710    4.264719    8.400322    ( 0.0000,  0.0000,  0.0000)
  15 Au     2.952699    6.820501    8.415016    ( 0.0000,  0.0000,  0.0000)
  16 Au     5.908056    6.820501    8.415016    ( 0.0000,  0.0000,  0.0000)
  17 Au     8.860755    6.817840    8.400322    ( 0.0000,  0.0000,  0.0000)
  18 Au    -0.000000    0.000000   11.126983    ( 0.0000,  0.0000,  0.0000)
  19 Au     2.956604   -0.000848   10.823126    ( 0.0000,  0.0000,  0.0000)
  20 Au     5.904151   -0.000848   10.823126    ( 0.0000,  0.0000,  0.0000)
  21 Au     1.477568    2.560918   10.823126    ( 0.0000,  0.0000,  0.0000)
  22 Au     4.430378    2.557880   10.833061    ( 0.0000,  0.0000,  0.0000)
  23 Au     7.383188    2.560918   10.823126    ( 0.0000,  0.0000,  0.0000)
  24 Au     2.951341    5.113569   10.823126    ( 0.0000,  0.0000,  0.0000)
  25 Au     5.909414    5.113569   10.823126    ( 0.0000,  0.0000,  0.0000)
  26 Au     8.860755    5.115759   10.830117    ( 0.0000,  0.0000,  0.0000)
  27 O     -0.000000   -0.000000   13.754204    ( 0.0000,  0.0000,  0.0000)
  28 C     -0.000000   -0.000000   12.784417    ( 0.0000,  0.0000,  0.0000)

Unit cell:
           periodic     x           y           z      points  spacing
  1. axis:    yes    8.860755    0.000000    0.000000    45     0.1705
  2. axis:    yes    4.430378    7.673639    0.000000    45     0.1705
  3. axis:    no     0.000000    0.000000   16.823184    84     0.2003

  Lengths:   8.860755   8.860755  16.823184
  Angles:   90.000000  90.000000  60.000000

Effective grid spacing dv^(1/3) = 0.1888

     iter     time        total  log10-change:
                         energy  eigst   dens
iter:   1 08:54:48   -99.362069  -0.84
iter:   2 08:54:53   -93.053534  -1.93  -1.50
iter:   3 08:54:59   -90.088355  -1.64  -1.70
iter:   4 08:55:05   -89.193423  -1.63  -2.02
iter:   5 08:55:10   -88.888306  -2.06  -2.11
iter:   6 08:55:16   -88.832496  -2.37  -2.29
iter:   7 08:55:21   -88.759459c -2.98  -2.44
iter:   8 08:55:27   -88.755473c -3.76  -2.80
iter:   9 08:55:33   -88.748439c -4.25  -2.87
iter:  10 08:55:38   -88.745156c -3.94  -2.98
iter:  11 08:55:44   -88.745072c -4.83  -3.16
iter:  12 08:55:49   -88.744104c -4.82  -3.24
iter:  13 08:55:55   -88.744231c -5.29  -3.45
iter:  14 08:56:01   -88.744226c -5.44  -3.49
iter:  15 08:56:06   -88.744352c -5.83  -3.79
iter:  16 08:56:12   -88.744344c -6.40  -4.02c
iter:  17 08:56:17   -88.744320c -6.69  -4.14c
iter:  18 08:56:23   -88.744261c -6.50  -4.22c
iter:  19 08:56:29   -88.744257c -7.41c -4.45c

Converged after 19 iterations.

Dipole moment: (-0.063603, -0.036721, 0.452165) |e|*Ang

Energy contributions relative to reference atoms: (reference = -13951221.800367)

Kinetic:       -236.897159
Potential:     +188.402480
External:        +0.000000
XC:             -43.160421
Entropy (-ST):   -0.311528
Local:           +3.066607
--------------------------
Free energy:    -88.900021
Extrapolated:   -88.744257

Showing only first 2 kpts
 Kpt  Band  Eigenvalues  Occupancy
  0   151     -0.07552    1.99999
  0   152      0.36636    1.99928
  0   153      0.62705    1.99033
  0   154      0.76872    1.96071

  1   151     -0.14223    2.00000
  1   152     -0.09689    1.99999
  1   153      0.08276    1.99996
  1   154      0.64398    1.98855


Fermi level: 1.15973

No gap

Forces in eV/Ang:
  0 Au    0.00644    0.00372   -0.07427
  1 Au    0.00000    0.01771   -0.04519
  2 Au   -0.00644    0.00372   -0.07427
  3 Au    0.01533   -0.00885   -0.04519
  4 Au   -0.01533   -0.00885   -0.04519
  5 Au    0.00000    0.05086   -0.08360
  6 Au    0.00000   -0.00743   -0.07427
  7 Au    0.04405   -0.02543   -0.08360
  8 Au   -0.04405   -0.02543   -0.08360
  9 Au    0.00000   -0.28054    0.27049
 10 Au    0.01182    0.00683    0.05537
 11 Au   -0.01182    0.00683    0.05537
 12 Au   -0.00172    0.00099    0.04892
 13 Au   -0.00000   -0.01365    0.05537
 14 Au    0.00172    0.00099    0.04892
 15 Au    0.24296    0.14027    0.27049
 16 Au   -0.24296    0.14027    0.27049
 17 Au    0.00000   -0.00198    0.04892
 18 Au   -0.00000    0.00000  -13.01160
 19 Au    0.23606    0.01700   -0.06714
 20 Au   -0.23606    0.01700   -0.06714
 21 Au    0.13275    0.19594   -0.06714
 22 Au    0.00000    0.00000    0.00584
 23 Au   -0.13275    0.19594   -0.06714
 24 Au   -0.10331   -0.21293   -0.06714
 25 Au    0.10331   -0.21293   -0.06714
 26 Au   -0.00000    0.00000   -0.01922
 27 O     0.00000   -0.00000   38.16975
 28 C     0.00000   -0.00000  -25.18939

System changes: positions 

Initializing position-dependent things.

Density initialized from wave functions
                                              
                                              
                                              
                                              
                                              
                                              
                                              
                                              
       O                                      
                  Au     Au     Au            
       C    Au      Au     Au                 
                   Au     Au     Au           
       Au     Au     AAu    Au                
                                              
        Au     Au     AAu    Au     Au        
                                              
                 Au     Au     Au             
                                              
           Au      Au     Au                  
                                              
                                              
                                              
                                              

Positions:
   0 Au     1.476439    0.852422    6.009579    ( 0.0000,  0.0000,  0.0000)
   1 Au     4.430378    0.850772    6.003440    ( 0.0000,  0.0000,  0.0000)
   2 Au     7.384316    0.852422    6.009579    ( 0.0000,  0.0000,  0.0000)
   3 Au     2.951979    3.411434    6.003440    ( 0.0000,  0.0000,  0.0000)
   4 Au     5.908776    3.411434    6.003440    ( 0.0000,  0.0000,  0.0000)
   5 Au     8.860755    3.407693    6.003691    ( 0.0000,  0.0000,  0.0000)
   6 Au     4.430378    5.968794    6.009579    ( 0.0000,  0.0000,  0.0000)
   7 Au     7.381526    5.969793    6.003691    ( 0.0000,  0.0000,  0.0000)
   8 Au    10.339984    5.969793    6.003691    ( 0.0000,  0.0000,  0.0000)
   9 Au    -0.000000    1.711814    8.403401    ( 0.0000,  0.0000,  0.0000)
  10 Au     2.951465    1.704029    8.411046    ( 0.0000,  0.0000,  0.0000)
  11 Au     5.909290    1.704029    8.411046    ( 0.0000,  0.0000,  0.0000)
  12 Au     1.479700    4.261454    8.416572    ( 0.0000,  0.0000,  0.0000)
  13 Au     4.430378    4.265581    8.411046    ( 0.0000,  0.0000,  0.0000)
  14 Au     7.381055    4.261454    8.416572    ( 0.0000,  0.0000,  0.0000)
  15 Au     2.947903    6.817732    8.403401    ( 0.0000,  0.0000,  0.0000)
  16 Au     5.912852    6.817732    8.403401    ( 0.0000,  0.0000,  0.0000)
  17 Au     8.860755    6.824369    8.416572    ( 0.0000,  0.0000,  0.0000)
  18 Au     0.000000   -0.000000   10.880314    ( 0.0000,  0.0000,  0.0000)
  19 Au     2.927224   -0.002311   10.825957    ( 0.0000,  0.0000,  0.0000)
  20 Au     5.933531   -0.002311   10.825957    ( 0.0000,  0.0000,  0.0000)
  21 Au     1.461610    2.536206   10.825957    ( 0.0000,  0.0000,  0.0000)
  22 Au     4.430378    2.557880   10.815817    ( 0.0000,  0.0000,  0.0000)
  23 Au     7.399145    2.536206   10.825957    ( 0.0000,  0.0000,  0.0000)
  24 Au     2.964764    5.139744   10.825957    ( 0.0000,  0.0000,  0.0000)
  25 Au     5.895991    5.139744   10.825957    ( 0.0000,  0.0000,  0.0000)
  26 Au     8.860755    5.115759   10.818992    ( 0.0000,  0.0000,  0.0000)
  27 O     -0.000000    0.000000   13.850640    ( 0.0000,  0.0000,  0.0000)
  28 C      0.000000    0.000000   12.835888    ( 0.0000,  0.0000,  0.0000)

Unit cell:
           periodic     x           y           z      points  spacing
  1. axis:    yes    8.860755    0.000000    0.000000    45     0.1705
  2. axis:    yes    4.430378    7.673639    0.000000    45     0.1705
  3. axis:    no     0.000000    0.000000   16.823184    84     0.2003

  Lengths:   8.860755   8.860755  16.823184
  Angles:   90.000000  90.000000  60.000000

Effective grid spacing dv^(1/3) = 0.1888

     iter     time        total  log10-change:
                         energy  eigst   dens
iter:   1 08:56:36   -95.476017  -0.81
iter:   2 08:56:42   -93.046472  -2.04  -1.71
iter:   3 08:56:48   -92.184070  -2.29  -1.94
iter:   4 08:56:53   -91.899800  -2.10  -2.22
iter:   5 08:56:59   -91.768512  -2.81  -2.26
iter:   6 08:57:05   -91.767005c -3.45  -2.65
iter:   7 08:57:10   -91.756872c -3.63  -2.71
iter:   8 08:57:16   -91.758432c -3.67  -2.90
iter:   9 08:57:22   -91.755997c -4.90  -3.07
iter:  10 08:57:27   -91.752919c -4.20  -3.14
iter:  11 08:57:33   -91.752816c -5.04  -3.39
iter:  12 08:57:39   -91.752665c -5.33  -3.49
iter:  13 08:57:44   -91.752646c -5.29  -3.68
iter:  14 08:57:50   -91.752635c -6.15  -3.86
iter:  15 08:57:56   -91.752590c -6.36  -3.95
iter:  16 08:58:01   -91.752571c -6.24  -4.08c
iter:  17 08:58:07   -91.752567c -7.12  -4.31c
iter:  18 08:58:12   -91.752559c -7.04  -4.33c
iter:  19 08:58:18   -91.752569c -7.05  -4.39c
iter:  20 08:58:24   -91.752567c -7.59c -4.50c

Converged after 20 iterations.

Dipole moment: (0.111241, 0.064225, 0.481918) |e|*Ang

Energy contributions relative to reference atoms: (reference = -13951221.800367)

Kinetic:       -266.048065
Potential:     +211.343758
External:        +0.000000
XC:             -39.907354
Entropy (-ST):   -0.305776
Local:           +3.011982
--------------------------
Free energy:    -91.905455
Extrapolated:   -91.752567

Showing only first 2 kpts
 Kpt  Band  Eigenvalues  Occupancy
  0   151     -0.06278    1.99999
  0   152      0.32981    1.99956
  0   153      0.64373    1.98999
  0   154      0.71989    1.97868

  1   151     -0.13636    2.00000
  1   152     -0.08329    1.99999
  1   153      0.09867    1.99996
  1   154      0.52481    1.99694


Fermi level: 1.17295

No gap

Forces in eV/Ang:
  0 Au    0.01499    0.00866   -0.12696
  1 Au   -0.00000    0.02432   -0.04352
  2 Au   -0.01499    0.00866   -0.12696
  3 Au    0.02107   -0.01216   -0.04352
  4 Au   -0.02107   -0.01216   -0.04352
  5 Au   -0.00000    0.07409   -0.05765
  6 Au    0.00000   -0.01731   -0.12696
  7 Au    0.06416   -0.03704   -0.05765
  8 Au   -0.06416   -0.03704   -0.05765
  9 Au    0.00000   -0.18901    0.17512
 10 Au    0.04526    0.02613    0.04580
 11 Au   -0.04526    0.02613    0.04580
 12 Au   -0.02928    0.01690    0.01156
 13 Au    0.00000   -0.05226    0.04580
 14 Au    0.02928    0.01690    0.01156
 15 Au    0.16369    0.09451    0.17512
 16 Au   -0.16369    0.09451    0.17512
 17 Au   -0.00000   -0.03380    0.01156
 18 Au   -0.00000    0.00000   -1.37928
 19 Au    0.44371    0.03234   -0.05405
 20 Au   -0.44371    0.03234   -0.05405
 21 Au    0.24986    0.36810   -0.05405
 22 Au    0.00000    0.00000    0.04305
 23 Au   -0.24986    0.36810   -0.05405
 24 Au   -0.19385   -0.40043   -0.05405
 25 Au    0.19385   -0.40043   -0.05405
 26 Au   -0.00000    0.00000    0.01289
 27 O     0.00000   -0.00000   23.00248
 28 C     0.00000    0.00000  -21.48046

System changes: positions 

Initializing position-dependent things.

Density initialized from wave functions
                                              
                                              
                                              
                                              
                                              
                                              
                                              
                                              
       O                                      
       C         Au      Au     Au            
                                              
             Au    AAu    AAu    Au           
               Au    Au                       
       Au    Au             Au                
        Au      Au    AAu    Au     Au        
                                              
                 Au     Au     Au             
                                              
           Au      Au     Au                  
                                              
                                              
                                              
                                              

Positions:
   0 Au     1.481549    0.855373    5.915631    ( 0.0000,  0.0000,  0.0000)
   1 Au     4.430378    0.870682    5.970258    ( 0.0000,  0.0000,  0.0000)
   2 Au     7.379206    0.855373    5.915631    ( 0.0000,  0.0000,  0.0000)
   3 Au     2.969222    3.401478    5.970258    ( 0.0000,  0.0000,  0.0000)
   4 Au     5.891534    3.401478    5.970258    ( 0.0000,  0.0000,  0.0000)
   5 Au     8.860755    3.445723    5.965325    ( 0.0000,  0.0000,  0.0000)
   6 Au     4.430378    5.962894    5.915631    ( 0.0000,  0.0000,  0.0000)
   7 Au     7.414461    5.950778    5.965325    ( 0.0000,  0.0000,  0.0000)
   8 Au    10.307049    5.950778    5.965325    ( 0.0000,  0.0000,  0.0000)
   9 Au    -0.000000    1.581563    8.518680    ( 0.0000,  0.0000,  0.0000)
  10 Au     2.979321    1.720112    8.427579    ( 0.0000,  0.0000,  0.0000)
  11 Au     5.881434    1.720112    8.427579    ( 0.0000,  0.0000,  0.0000)
  12 Au     1.455608    4.275363    8.397274    ( 0.0000,  0.0000,  0.0000)
  13 Au     4.430378    4.233415    8.427579    ( 0.0000,  0.0000,  0.0000)
  14 Au     7.405147    4.275363    8.397274    ( 0.0000,  0.0000,  0.0000)
  15 Au     3.060704    6.882858    8.518680    ( 0.0000,  0.0000,  0.0000)
  16 Au     5.800051    6.882858    8.518680    ( 0.0000,  0.0000,  0.0000)
  17 Au     8.860755    6.796551    8.397274    ( 0.0000,  0.0000,  0.0000)
  18 Au    -0.000000    0.000000   10.412775    ( 0.0000,  0.0000,  0.0000)
  19 Au     3.274648    0.018455   10.792686    ( 0.0000,  0.0000,  0.0000)
  20 Au     5.586107    0.018455   10.792686    ( 0.0000,  0.0000,  0.0000)
  21 Au     1.653306    2.826701   10.792686    ( 0.0000,  0.0000,  0.0000)
  22 Au     4.430378    2.557880   10.872827    ( 0.0000,  0.0000,  0.0000)
  23 Au     7.207449    2.826701   10.792686    ( 0.0000,  0.0000,  0.0000)
  24 Au     2.809035    4.828483   10.792686    ( 0.0000,  0.0000,  0.0000)
  25 Au     6.051720    4.828483   10.792686    ( 0.0000,  0.0000,  0.0000)
  26 Au     8.860755    5.115759   10.845994    ( 0.0000,  0.0000,  0.0000)
  27 O     -0.000000   -0.000000   14.239386    ( 0.0000,  0.0000,  0.0000)
  28 C     -0.000000   -0.000000   13.267212    ( 0.0000,  0.0000,  0.0000)

Unit cell:
           periodic     x           y           z      points  spacing
  1. axis:    yes    8.860755    0.000000    0.000000    45     0.1705
  2. axis:    yes    4.430378    7.673639    0.000000    45     0.1705
  3. axis:    no     0.000000    0.000000   16.823184    84     0.2003

  Lengths:   8.860755   8.860755  16.823184
  Angles:   90.000000  90.000000  60.000000

Effective grid spacing dv^(1/3) = 0.1888

     iter     time        total  log10-change:
                         energy  eigst   dens
iter:   1 08:58:32  -139.329783  -0.23
iter:   2 08:58:37   -93.680820  -0.90  -1.09
iter:   3 08:58:43   -89.621754  -1.33  -1.51
iter:   4 08:58:48   -85.563303  -0.86  -1.65
iter:   5 08:58:54   -85.372008  -1.29  -1.92
iter:   6 08:59:00   -84.886321  -2.32  -2.02
iter:   7 08:59:05   -84.801837  -2.36  -2.16
iter:   8 08:59:11   -84.736636c -2.99  -2.34
iter:   9 08:59:16   -84.684737c -2.93  -2.52
iter:  10 08:59:22   -84.678402c -4.31  -2.71
iter:  11 08:59:27   -84.675995c -3.60  -2.76
iter:  12 08:59:33   -84.670467c -4.19  -2.91
iter:  13 08:59:39   -84.669247c -4.47  -3.13
iter:  14 08:59:44   -84.668688c -4.81  -3.30
iter:  15 08:59:50   -84.668668c -5.31  -3.46
iter:  16 08:59:55   -84.668855c -5.59  -3.62
iter:  17 09:00:01   -84.669016c -5.47  -3.72
iter:  18 09:00:07   -84.668944c -6.53  -3.84
iter:  19 09:00:12   -84.668728c -5.58  -3.87
iter:  20 09:00:18   -84.668698c -6.42  -4.12c
iter:  21 09:00:23   -84.668685c -7.02  -4.35c
iter:  22 09:00:29   -84.668690c -7.12  -4.46c
iter:  23 09:00:34   -84.668700c -7.39  -4.59c
iter:  24 09:00:40   -84.668701c -7.73c -4.74c

Converged after 24 iterations.

Dipole moment: (-0.011824, -0.006827, 0.518188) |e|*Ang

Energy contributions relative to reference atoms: (reference = -13951221.800367)

Kinetic:       -112.842949
Potential:      +77.862236
External:        +0.000000
XC:             -52.677432
Entropy (-ST):   -0.265801
Local:           +3.122345
--------------------------
Free energy:    -84.801601
Extrapolated:   -84.668701

Showing only first 2 kpts
 Kpt  Band  Eigenvalues  Occupancy
  0   151      0.02048    1.99997
  0   152      0.16946    1.99988
  0   153      0.61791    1.98982
  0   154      0.82229    1.92399

  1   151     -0.18517    2.00000
  1   152      0.03297    1.99997
  1   153      0.08704    1.99995
  1   154      0.36651    1.99917


Fermi level: 1.14542

No gap

Forces in eV/Ang:
  0 Au   -0.05345   -0.03086    0.19058
  1 Au    0.00000   -0.09437    0.05086
  2 Au    0.05345   -0.03086    0.19058
  3 Au   -0.08173    0.04719    0.05086
  4 Au    0.08173    0.04719    0.05086
  5 Au   -0.00000   -0.36550    0.13420
  6 Au    0.00000    0.06172    0.19058
  7 Au   -0.31653    0.18275    0.13420
  8 Au    0.31653    0.18275    0.13420
  9 Au    0.00000    3.51043   -2.46687
 10 Au   -0.26811   -0.15479   -0.33719
 11 Au    0.26811   -0.15479   -0.33719
 12 Au   -0.11436    0.06603   -0.88791
 13 Au   -0.00000    0.30959   -0.33719
 14 Au    0.11436    0.06603   -0.88791
 15 Au   -3.04012   -1.75522   -2.46687
 16 Au    3.04012   -1.75522   -2.46687
 17 Au    0.00000   -0.13205   -0.88791
 18 Au    0.00000    0.00000    7.66408
 19 Au   -7.30118   -0.02836    0.31821
 20 Au    7.30118   -0.02836    0.31821
 21 Au   -3.67515   -6.30883    0.31821
 22 Au    0.00000    0.00000    0.31575
 23 Au    3.67515   -6.30883    0.31821
 24 Au    3.62603    6.33718    0.31821
 25 Au   -3.62603    6.33718    0.31821
 26 Au   -0.00000    0.00000    0.31780
 27 O    -0.00000    0.00000   35.15247
 28 C    -0.00000    0.00000  -35.46021

System changes: positions 

Initializing position-dependent things.

Density initialized from wave functions
                                              
                                              
                                              
                                              
                                              
                                              
                                              
                                              
       O                                      
                 Au      Au     Au            
       C                                      
             Au    AAu    AAu    Au           
       Au      Au    Au                       
             Au             Au                
        Au      Au    AAu    Au     Au        
                                              
                 Au     Au     Au             
                                              
           Au      Au     Au                  
                                              
                                              
                                              
                                              

Positions:
   0 Au     1.476827    0.852647    5.946812    ( 0.0000,  0.0000,  0.0000)
   1 Au     4.430378    0.863398    5.978570    ( 0.0000,  0.0000,  0.0000)
   2 Au     7.383928    0.852647    5.946812    ( 0.0000,  0.0000,  0.0000)
   3 Au     2.962914    3.405120    5.978570    ( 0.0000,  0.0000,  0.0000)
   4 Au     5.897841    3.405120    5.978570    ( 0.0000,  0.0000,  0.0000)
   5 Au     8.860755    3.417855    5.982666    ( 0.0000,  0.0000,  0.0000)
   6 Au     4.430378    5.968346    5.946812    ( 0.0000,  0.0000,  0.0000)
   7 Au     7.390327    5.964711    5.982666    ( 0.0000,  0.0000,  0.0000)
   8 Au    10.331183    5.964711    5.982666    ( 0.0000,  0.0000,  0.0000)
   9 Au    -0.000000    1.674567    8.458213    ( 0.0000,  0.0000,  0.0000)
  10 Au     2.962178    1.710214    8.406725    ( 0.0000,  0.0000,  0.0000)
  11 Au     5.898578    1.710214    8.406725    ( 0.0000,  0.0000,  0.0000)
  12 Au     1.457836    4.274077    8.367527    ( 0.0000,  0.0000,  0.0000)
  13 Au     4.430378    4.253211    8.406725    ( 0.0000,  0.0000,  0.0000)
  14 Au     7.402919    4.274077    8.367527    ( 0.0000,  0.0000,  0.0000)
  15 Au     2.980160    6.836355    8.458213    ( 0.0000,  0.0000,  0.0000)
  16 Au     5.880595    6.836355    8.458213    ( 0.0000,  0.0000,  0.0000)
  17 Au     8.860755    6.799123    8.367527    ( 0.0000,  0.0000,  0.0000)
  18 Au    -0.000000    0.000000   11.048609    ( 0.0000,  0.0000,  0.0000)
  19 Au     3.086048    0.009611   10.809602    ( 0.0000,  0.0000,  0.0000)
  20 Au     5.774707    0.009611   10.809602    ( 0.0000,  0.0000,  0.0000)
  21 Au     1.551347    2.667790   10.809602    ( 0.0000,  0.0000,  0.0000)
  22 Au     4.430378    2.557880   10.876479    ( 0.0000,  0.0000,  0.0000)
  23 Au     7.309408    2.667790   10.809602    ( 0.0000,  0.0000,  0.0000)
  24 Au     2.895677    4.996238   10.809602    ( 0.0000,  0.0000,  0.0000)
  25 Au     5.965078    4.996238   10.809602    ( 0.0000,  0.0000,  0.0000)
  26 Au     8.860755    5.115759   10.855723    ( 0.0000,  0.0000,  0.0000)
  27 O      0.000000   -0.000000   14.175084    ( 0.0000,  0.0000,  0.0000)
  28 C     -0.000000   -0.000000   12.735655    ( 0.0000,  0.0000,  0.0000)

Unit cell:
           periodic     x           y           z      points  spacing
  1. axis:    yes    8.860755    0.000000    0.000000    45     0.1705
  2. axis:    yes    4.430378    7.673639    0.000000    45     0.1705
  3. axis:    no     0.000000    0.000000   16.823184    84     0.2003

  Lengths:   8.860755   8.860755  16.823184
  Angles:   90.000000  90.000000  60.000000

Effective grid spacing dv^(1/3) = 0.1888

     iter     time        total  log10-change:
                         energy  eigst   dens
iter:   1 09:00:48  -117.448331  +0.13
iter:   2 09:00:53  -104.208128  -1.12  -1.31
iter:   3 09:00:59   -95.546137  -1.51  -1.52
iter:   4 09:01:04   -91.370234  -1.02  -1.69
iter:   5 09:01:10   -90.593273  -2.66  -1.92
iter:   6 09:01:16   -89.989081  -2.01  -1.97
iter:   7 09:01:21   -89.984203  -2.32  -2.16
iter:   8 09:01:27   -89.689451  -2.83  -2.22
iter:   9 09:01:32   -89.624816  -2.72  -2.40
iter:  10 09:01:38   -89.618881c -3.90  -2.60
iter:  11 09:01:43   -89.616247c -3.64  -2.71
iter:  12 09:01:49   -89.617252c -3.94  -2.89
iter:  13 09:01:54   -89.614103c -4.32  -3.02
iter:  14 09:02:00   -89.613355c -4.80  -3.20
iter:  15 09:02:06   -89.613039c -5.30  -3.28
iter:  16 09:02:11   -89.613001c -5.08  -3.34
iter:  17 09:02:17   -89.612655c -5.23  -3.46
iter:  18 09:02:22   -89.612586c -5.79  -3.84
iter:  19 09:02:28   -89.612582c -6.23  -4.00
iter:  20 09:02:34   -89.612523c -5.95  -4.08c
iter:  21 09:02:39   -89.612521c -6.95  -4.23c
iter:  22 09:02:45   -89.612499c -6.65  -4.28c
iter:  23 09:02:50   -89.612499c -7.69c -4.57c

Converged after 23 iterations.

Dipole moment: (-1.050122, -0.606288, -0.455091) |e|*Ang

Energy contributions relative to reference atoms: (reference = -13951221.800367)

Kinetic:       -296.683844
Potential:     +235.401447
External:        +0.000000
XC:             -31.371387
Entropy (-ST):   -0.319806
Local:           +3.201189
--------------------------
Free energy:    -89.772402
Extrapolated:   -89.612499

Showing only first 2 kpts
 Kpt  Band  Eigenvalues  Occupancy
[...]
  1. axis:    yes    8.860755    0.000000    0.000000    45     0.1705
  2. axis:    yes    4.430378    7.673639    0.000000    45     0.1705
  3. axis:    no     0.000000    0.000000   16.823184    84     0.2003

  Lengths:   8.860755   8.860755  16.823184
  Angles:   90.000000  90.000000  60.000000

Effective grid spacing dv^(1/3) = 0.1888

     iter     time        total  log10-change:
                         energy  eigst   dens
iter:   1 09:57:52   -93.244186  -4.32
iter:   2 09:57:58   -93.243486  -5.42  -3.53
iter:   3 09:58:03   -93.243333c -6.00  -3.88
iter:   4 09:58:09   -93.243279c -6.25  -4.09c
iter:   5 09:58:14   -93.243280c -6.93  -4.38c
iter:   6 09:58:20   -93.243317c -6.71  -4.50c
iter:   7 09:58:25   -93.243286c -7.27  -4.68c
iter:   8 09:58:31   -93.243281c -8.18c -4.92c

Converged after 8 iterations.

Dipole moment: (-0.495717, -0.286202, 0.296243) |e|*Ang

Energy contributions relative to reference atoms: (reference = -13951221.800367)

Kinetic:       -300.205635
Potential:     +238.211212
External:        +0.000000
XC:             -34.137608
Entropy (-ST):   -0.305908
Local:           +3.041704
--------------------------
Free energy:    -93.396235
Extrapolated:   -93.243281

Showing only first 2 kpts
 Kpt  Band  Eigenvalues  Occupancy
  0   151     -0.13868    1.99999
  0   152      0.21847    1.99971
  0   153      0.56409    1.99087
  0   154      0.63858    1.98087

  1   151     -0.20139    2.00000
  1   152     -0.13369    1.99999
  1   153      0.01480    1.99996
  1   154      0.36239    1.99878


Fermi level: 1.10256

No gap

Forces in eV/Ang:
  0 Au    0.01098    0.00634    0.00216
  1 Au    0.00000    0.00323    0.00805
  2 Au   -0.01098    0.00634    0.00216
  3 Au    0.00279   -0.00161    0.00805
  4 Au   -0.00279   -0.00161    0.00805
  5 Au    0.00000   -0.00197   -0.00137
  6 Au    0.00000   -0.01268    0.00216
  7 Au   -0.00170    0.00098   -0.00137
  8 Au    0.00170    0.00098   -0.00137
  9 Au    0.00000    0.01574    0.00423
 10 Au   -0.00203   -0.00117   -0.00104
 11 Au    0.00203   -0.00117   -0.00104
 12 Au    0.00263   -0.00152    0.01221
 13 Au   -0.00000    0.00234   -0.00104
 14 Au   -0.00263   -0.00152    0.01221
 15 Au   -0.01363   -0.00787    0.00423
 16 Au    0.01363   -0.00787    0.00423
 17 Au    0.00000    0.00303    0.01221
 18 Au    0.00000    0.00000    0.00761
 19 Au   -0.00157   -0.00013   -0.00701
 20 Au    0.00157   -0.00013   -0.00701
 21 Au   -0.00090   -0.00130   -0.00701
 22 Au   -0.00000    0.00000   -0.00536
 23 Au    0.00090   -0.00130   -0.00701
 24 Au    0.00067    0.00143   -0.00701
 25 Au   -0.00067    0.00143   -0.00701
 26 Au    0.00000    0.00000   -0.00040
 27 O    -0.00000    0.00000   -0.00556
 28 C    -0.00000    0.00000    0.02498

System changes: positions 

Initializing position-dependent things.

Density initialized from wave functions
                                              
                                              
                                              
                                              
                                              
                                              
                                              
                                              
       O                                      
                  Au     Au     Au            
       C                                      
             Au    AAu    AAu    Au           
       Au     Au     Au                       
              Au     Au     Au                
        Au     Au     AAu    Au     Au        
                                              
                 Au     Au     Au             
                                              
           Au      Au     Au                  
                                              
                                              
                                              
                                              

Positions:
   0 Au     1.470149    0.848791    5.981592    ( 0.0000,  0.0000,  0.0000)
   1 Au     4.430378    0.856602    5.952343    ( 0.0000,  0.0000,  0.0000)
   2 Au     7.390606    0.848791    5.981592    ( 0.0000,  0.0000,  0.0000)
   3 Au     2.957028    3.408519    5.952343    ( 0.0000,  0.0000,  0.0000)
   4 Au     5.903727    3.408519    5.952343    ( 0.0000,  0.0000,  0.0000)
   5 Au     8.860755    3.399937    5.970795    ( 0.0000,  0.0000,  0.0000)
   6 Au     4.430378    5.976057    5.981592    ( 0.0000,  0.0000,  0.0000)
   7 Au     7.374809    5.973670    5.970795    ( 0.0000,  0.0000,  0.0000)
   8 Au    10.346701    5.973670    5.970795    ( 0.0000,  0.0000,  0.0000)
   9 Au    -0.000000    1.678669    8.458905    ( 0.0000,  0.0000,  0.0000)
  10 Au     2.958869    1.708304    8.382422    ( 0.0000,  0.0000,  0.0000)
  11 Au     5.901886    1.708304    8.382422    ( 0.0000,  0.0000,  0.0000)
  12 Au     1.473065    4.265285    8.357918    ( 0.0000,  0.0000,  0.0000)
  13 Au     4.430378    4.257031    8.382422    ( 0.0000,  0.0000,  0.0000)
  14 Au     7.387690    4.265285    8.357918    ( 0.0000,  0.0000,  0.0000)
  15 Au     2.976608    6.834305    8.458905    ( 0.0000,  0.0000,  0.0000)
  16 Au     5.884147    6.834305    8.458905    ( 0.0000,  0.0000,  0.0000)
  17 Au     8.860755    6.816709    8.357918    ( 0.0000,  0.0000,  0.0000)
  18 Au     0.000000    0.000000   10.944324    ( 0.0000,  0.0000,  0.0000)
  19 Au     2.996242    0.005234   10.800289    ( 0.0000,  0.0000,  0.0000)
  20 Au     5.864513    0.005234   10.800289    ( 0.0000,  0.0000,  0.0000)
  21 Au     1.502654    2.592204   10.800289    ( 0.0000,  0.0000,  0.0000)
  22 Au     4.430378    2.557880   10.833011    ( 0.0000,  0.0000,  0.0000)
  23 Au     7.358101    2.592204   10.800289    ( 0.0000,  0.0000,  0.0000)
  24 Au     2.936790    5.076201   10.800289    ( 0.0000,  0.0000,  0.0000)
  25 Au     5.923965    5.076201   10.800289    ( 0.0000,  0.0000,  0.0000)
  26 Au     8.860755    5.115759   10.795632    ( 0.0000,  0.0000,  0.0000)
  27 O      0.000000   -0.000000   14.147277    ( 0.0000,  0.0000,  0.0000)
  28 C     -0.000000   -0.000000   13.001445    ( 0.0000,  0.0000,  0.0000)

Unit cell:
           periodic     x           y           z      points  spacing
  1. axis:    yes    8.860755    0.000000    0.000000    45     0.1705
  2. axis:    yes    4.430378    7.673639    0.000000    45     0.1705
  3. axis:    no     0.000000    0.000000   16.823184    84     0.2003

  Lengths:   8.860755   8.860755  16.823184
  Angles:   90.000000  90.000000  60.000000

Effective grid spacing dv^(1/3) = 0.1888

     iter     time        total  log10-change:
                         energy  eigst   dens
iter:   1 09:58:40   -93.243952  -4.28
iter:   2 09:58:46   -93.243610  -5.43  -3.61
iter:   3 09:58:51   -93.243457c -5.85  -3.78
iter:   4 09:58:57   -93.243452c -5.90  -3.98
iter:   5 09:59:03   -93.243448c -6.72  -4.25c
iter:   6 09:59:08   -93.243436c -6.54  -4.43c
iter:   7 09:59:14   -93.243426c -7.01  -4.46c
iter:   8 09:59:19   -93.243426c -8.24c -4.80c

Converged after 8 iterations.

Dipole moment: (-0.404349, -0.233451, 0.298403) |e|*Ang

Energy contributions relative to reference atoms: (reference = -13951221.800367)

Kinetic:       -300.325411
Potential:     +238.313324
External:        +0.000000
XC:             -34.119604
Entropy (-ST):   -0.305966
Local:           +3.041248
--------------------------
Free energy:    -93.396409
Extrapolated:   -93.243426

Showing only first 2 kpts
 Kpt  Band  Eigenvalues  Occupancy
  0   151     -0.13815    1.99999
  0   152      0.21812    1.99971
  0   153      0.56488    1.99085
  0   154      0.63840    1.98100

  1   151     -0.19987    2.00000
  1   152     -0.13362    1.99999
  1   153      0.01553    1.99996
  1   154      0.36092    1.99880


Fermi level: 1.10311

No gap

Forces in eV/Ang:
  0 Au    0.00069    0.00040    0.00364
  1 Au    0.00000    0.00473    0.00568
  2 Au   -0.00069    0.00040    0.00364
  3 Au    0.00409   -0.00236    0.00568
  4 Au   -0.00409   -0.00236    0.00568
  5 Au   -0.00000   -0.00047    0.00228
  6 Au   -0.00000   -0.00080    0.00364
  7 Au   -0.00041    0.00024    0.00228
  8 Au    0.00041    0.00024    0.00228
  9 Au    0.00000    0.00889    0.00410
 10 Au    0.00066    0.00038    0.00432
 11 Au   -0.00066    0.00038    0.00432
 12 Au   -0.00310    0.00179    0.00579
 13 Au    0.00000   -0.00076    0.00432
 14 Au    0.00310    0.00179    0.00579
 15 Au   -0.00770   -0.00444    0.00410
 16 Au    0.00770   -0.00444    0.00410
 17 Au    0.00000   -0.00358    0.00579
 18 Au    0.00000    0.00000    0.00273
 19 Au   -0.00313    0.00388   -0.00448
 20 Au    0.00313    0.00388   -0.00448
 21 Au    0.00180   -0.00465   -0.00448
 22 Au    0.00000    0.00000   -0.00741
 23 Au   -0.00180   -0.00465   -0.00448
 24 Au    0.00492    0.00077   -0.00448
 25 Au   -0.00492    0.00077   -0.00448
 26 Au   -0.00000    0.00000    0.00288
 27 O    -0.00000   -0.00000    0.01469
 28 C    -0.00000    0.00000   -0.00325

System changes: positions 

Initializing position-dependent things.

Density initialized from wave functions
                                              
                                              
                                              
                                              
                                              
                                              
                                              
                                              
       O                                      
                  Au     Au     Au            
       C                                      
             Au    AAu    AAu    Au           
       Au     Au     Au                       
              Au     Au     Au                
        Au     Au     AAu    Au     Au        
                                              
                 Au     Au     Au             
                                              
           Au      Au     Au                  
                                              
                                              
                                              
                                              

Positions:
   0 Au     1.470414    0.848944    5.981353    ( 0.0000,  0.0000,  0.0000)
   1 Au     4.430378    0.856895    5.952402    ( 0.0000,  0.0000,  0.0000)
   2 Au     7.390341    0.848944    5.981353    ( 0.0000,  0.0000,  0.0000)
   3 Au     2.957281    3.408372    5.952402    ( 0.0000,  0.0000,  0.0000)
   4 Au     5.903474    3.408372    5.952402    ( 0.0000,  0.0000,  0.0000)
   5 Au     8.860755    3.400034    5.970624    ( 0.0000,  0.0000,  0.0000)
   6 Au     4.430378    5.975751    5.981353    ( 0.0000,  0.0000,  0.0000)
   7 Au     7.374893    5.973622    5.970624    ( 0.0000,  0.0000,  0.0000)
   8 Au    10.346617    5.973622    5.970624    ( 0.0000,  0.0000,  0.0000)
   9 Au    -0.000000    1.679260    8.459169    ( 0.0000,  0.0000,  0.0000)
  10 Au     2.959037    1.708401    8.382471    ( 0.0000,  0.0000,  0.0000)
  11 Au     5.901718    1.708401    8.382471    ( 0.0000,  0.0000,  0.0000)
  12 Au     1.473029    4.265306    8.358593    ( 0.0000,  0.0000,  0.0000)
  13 Au     4.430378    4.256837    8.382471    ( 0.0000,  0.0000,  0.0000)
  14 Au     7.387727    4.265306    8.358593    ( 0.0000,  0.0000,  0.0000)
  15 Au     2.976096    6.834009    8.459169    ( 0.0000,  0.0000,  0.0000)
  16 Au     5.884659    6.834009    8.459169    ( 0.0000,  0.0000,  0.0000)
  17 Au     8.860755    6.816666    8.358593    ( 0.0000,  0.0000,  0.0000)
  18 Au     0.000000    0.000000   10.944552    ( 0.0000,  0.0000,  0.0000)
  19 Au     2.995979    0.005192   10.800123    ( 0.0000,  0.0000,  0.0000)
  20 Au     5.864776    0.005192   10.800123    ( 0.0000,  0.0000,  0.0000)
  21 Au     1.502486    2.591998   10.800123    ( 0.0000,  0.0000,  0.0000)
  22 Au     4.430378    2.557880   10.832383    ( 0.0000,  0.0000,  0.0000)
  23 Au     7.358269    2.591998   10.800123    ( 0.0000,  0.0000,  0.0000)
  24 Au     2.936884    5.076449   10.800123    ( 0.0000,  0.0000,  0.0000)
  25 Au     5.923871    5.076449   10.800123    ( 0.0000,  0.0000,  0.0000)
  26 Au     8.860755    5.115759   10.795397    ( 0.0000,  0.0000,  0.0000)
  27 O      0.000000   -0.000000   14.147641    ( 0.0000,  0.0000,  0.0000)
  28 C     -0.000000   -0.000000   13.001684    ( 0.0000,  0.0000,  0.0000)

Unit cell:
           periodic     x           y           z      points  spacing
  1. axis:    yes    8.860755    0.000000    0.000000    45     0.1705
  2. axis:    yes    4.430378    7.673639    0.000000    45     0.1705
  3. axis:    no     0.000000    0.000000   16.823184    84     0.2003

  Lengths:   8.860755   8.860755  16.823184
  Angles:   90.000000  90.000000  60.000000

Effective grid spacing dv^(1/3) = 0.1888

     iter     time        total  log10-change:
                         energy  eigst   dens
iter:   1 09:59:29   -93.243611  -5.36
iter:   2 09:59:34   -93.243475  -6.57  -3.75
iter:   3 09:59:40   -93.243475c -6.63  -4.05c
iter:   4 09:59:45   -93.243483c -6.41  -4.20c
iter:   5 09:59:51   -93.243488c -7.17  -4.58c
iter:   6 09:59:56   -93.243479c -7.74c -4.72c

Converged after 6 iterations.

Dipole moment: (-0.398897, -0.230303, 0.298904) |e|*Ang

Energy contributions relative to reference atoms: (reference = -13951221.800367)

Kinetic:       -300.459088
Potential:     +238.436233
External:        +0.000000
XC:             -34.108268
Entropy (-ST):   -0.305945
Local:           +3.040617
--------------------------
Free energy:    -93.396452
Extrapolated:   -93.243479

Showing only first 2 kpts
 Kpt  Band  Eigenvalues  Occupancy
  0   151     -0.13830    1.99999
  0   152      0.21792    1.99971
  0   153      0.56474    1.99084
  0   154      0.63821    1.98101

  1   151     -0.19996    2.00000
  1   152     -0.13376    1.99999
  1   153      0.01541    1.99996
  1   154      0.36058    1.99881


Fermi level: 1.10293

No gap

Forces in eV/Ang:
  0 Au   -0.00016   -0.00009    0.00620
  1 Au    0.00000   -0.00147    0.00584
  2 Au    0.00016   -0.00009    0.00620
  3 Au   -0.00128    0.00074    0.00584
  4 Au    0.00128    0.00074    0.00584
  5 Au    0.00000   -0.00126    0.00119
  6 Au    0.00000    0.00018    0.00620
  7 Au   -0.00109    0.00063    0.00119
  8 Au    0.00109    0.00063    0.00119
  9 Au   -0.00000    0.00369    0.00019
 10 Au   -0.00369   -0.00213    0.00035
 11 Au    0.00369   -0.00213    0.00035
 12 Au   -0.00054    0.00031   -0.00007
 13 Au    0.00000    0.00426    0.00035
 14 Au    0.00054    0.00031   -0.00007
 15 Au   -0.00320   -0.00185    0.00019
 16 Au    0.00320   -0.00185    0.00019
 17 Au    0.00000   -0.00062   -0.00007
 18 Au   -0.00000    0.00000    0.00168
 19 Au   -0.00318    0.00377   -0.00052
 20 Au    0.00318    0.00377   -0.00052
 21 Au    0.00167   -0.00464   -0.00052
 22 Au    0.00000    0.00000   -0.00309
 23 Au   -0.00167   -0.00464   -0.00052
 24 Au    0.00485    0.00087   -0.00052
 25 Au   -0.00485    0.00087   -0.00052
 26 Au    0.00000    0.00000    0.00514
 27 O     0.00000   -0.00000    0.00185
 28 C     0.00000    0.00000    0.00564

Timing:                                      incl.     excl.
-------------------------------------------------------------------
Density initialized from wave functions:    26.625    23.106   0.5% |
 Symmetrize density:                         3.518     3.518   0.1% |
Forces:                                     75.886    75.886   1.6% ||
Hamiltonian:                                17.756     0.210   0.0% |
 Atomic:                                     7.971     4.009   0.1% |
  XC Correction:                             3.963     3.963   0.1% |
 Calculate atomic Hamiltonians:              4.951     4.951   0.1% |
 Communicate:                                0.063     0.063   0.0% |
 Initialize Hamiltonian:                     0.000     0.000   0.0% |
 Poisson:                                    0.048     0.048   0.0% |
 XC 3D grid:                                 4.512     4.512   0.1% |
LCAO initialization:                         8.121     0.258   0.0% |
 LCAO eigensolver:                           0.458     0.001   0.0% |
  Calculate projections:                     0.003     0.003   0.0% |
  DenseAtomicCorrection:                     0.004     0.004   0.0% |
  Distribute overlap matrix:                 0.063     0.063   0.0% |
  Orbital Layouts:                           0.115     0.115   0.0% |
  Potential matrix:                          0.248     0.248   0.0% |
  Sum over cells:                            0.023     0.023   0.0% |
 LCAO to grid:                               7.151     7.151   0.1% |
 Set positions (LCAO WFS):                   0.253     0.094   0.0% |
  Basic WFS set positions:                   0.005     0.005   0.0% |
  Basis functions set positions:             0.000     0.000   0.0% |
  P tci:                                     0.094     0.094   0.0% |
  ST tci:                                    0.031     0.031   0.0% |
  mktci:                                     0.029     0.029   0.0% |
PWDescriptor:                                0.345     0.345   0.0% |
Redistribute:                                0.095     0.095   0.0% |
SCF-cycle:                                4595.474    75.617   1.6% ||
 Davidson:                                3898.495   733.502  15.3% |-----|
  Apply H:                                 440.908   429.511   9.0% |---|
   HMM T:                                   11.397    11.397   0.2% |
  Subspace diag:                           660.494     0.347   0.0% |
   calc_h_matrix:                          509.875    69.919   1.5% ||
    Apply H:                               439.957   428.477   9.0% |---|
     HMM T:                                 11.479    11.479   0.2% |
   diagonalize:                             37.162    37.162   0.8% |
   rotate_psi:                             113.109   113.109   2.4% ||
  calc. matrices:                         1315.060   436.342   9.1% |---|
   Apply H:                                878.718   856.114  17.9% |------|
    HMM T:                                  22.603    22.603   0.5% |
  diagonalize:                             526.424   526.424  11.0% |---|
  rotate_psi:                              222.108   222.108   4.6% |-|
 Density:                                  358.142     0.023   0.0% |
  Atomic density matrices:                   3.459     3.459   0.1% |
  Mix:                                      90.577    90.577   1.9% ||
  Multipole moments:                         0.163     0.163   0.0% |
  Pseudo density:                          263.920   214.735   4.5% |-|
   Symmetrize density:                      49.184    49.184   1.0% |
 Hamiltonian:                              244.688     2.969   0.1% |
  Atomic:                                  109.724    55.094   1.2% |
   XC Correction:                           54.630    54.630   1.1% |
  Calculate atomic Hamiltonians:            67.787    67.787   1.4% ||
  Communicate:                               1.248     1.248   0.0% |
  Poisson:                                   0.673     0.673   0.0% |
  XC 3D grid:                               62.287    62.287   1.3% ||
 Orthonormalize:                            18.532     0.030   0.0% |
  calc_s_matrix:                             2.272     2.272   0.0% |
  inverse-cholesky:                          0.934     0.934   0.0% |
  projections:                              11.180    11.180   0.2% |
  rotate_psi_s:                              4.116     4.116   0.1% |
Set symmetry:                                0.003     0.003   0.0% |
Other:                                      59.601    59.601   1.2% |
-------------------------------------------------------------------
Total:                                              4783.906 100.0%

Memory usage: 1004.14 MiB
Date: Fri Mar 10 10:00:01 2023
