
  ___ ___ ___ _ _ _  
 |   |   |_  | | | | 
 | | | | | . | | | | 
 |__ |  _|___|_____|  22.8.0
 |___|_|             

User:   gotols@vera07-3
Date:   Thu Mar  2 11:46:34 2023
Arch:   x86_64
Pid:    1667366
CWD:    /cephyr/users/gotols/Vera/TIF320-Computational-materials-and-molecular-physics-Assignments
Python: 3.10.4
gpaw:   /apps/Arch/software/GPAW/22.8.0-foss-2022a/lib/python3.10/site-packages/gpaw
_gpaw:  /apps/Arch/software/GPAW/22.8.0-foss-2022a/lib/python3.10/site-packages/
        _gpaw.cpython-310-x86_64-linux-gnu.so
ase:    /apps/Arch/software/ASE/3.22.1-foss-2022a/lib/python3.10/site-packages/ase (version 3.22.1)
numpy:  /apps/Arch/software/SciPy-bundle/2022.05-foss-2022a/lib/python3.10/site-packages/numpy (version 1.22.3)
scipy:  /apps/Arch/software/SciPy-bundle/2022.05-foss-2022a/lib/python3.10/site-packages/scipy (version 1.8.1)
libxc:  5.2.3
units:  Angstrom and eV
cores: 16
OpenMP: False
OMP_NUM_THREADS: 1

Input parameters:
  kpts: [4 4 1]
  mode: {ecut: 450.00000000000006,
         name: pw}
  xc: PBE

System changes: positions, numbers, cell, pbc, initial_charges, initial_magmoms 

Initialize ...

species:
  Au:
    name: Gold
    id: b12133f335f6ca0d89c4b1ccaa844e9a
    Z: 79.0
    valence: 11
    core: 68
    charge: 0.0
    file: /apps/Common/software/GPAW-setups/0.9.20000/Au.PBE.gz
    compensation charges: {type: gauss,
                           rc: 0.42,
                           lmax: 2}
    cutoffs: {filter: 2.33,
              core: 2.81}
    valence states:
      #              energy  rcut
      - 6s(1.00)    -5.728   1.323
      - 6p(0.00)    -0.775   1.323
      - 5d(10.00)    -6.891   1.323
      -  s          21.484   1.323
      -  p          26.436   1.323
      -  d          20.321   1.323
  
    # Using partial waves for Au as LCAO basis

  O:
    name: Oxygen
    id: 32ecd46bf208036f09c70b0ec9a88b78
    Z: 8.0
    valence: 6
    core: 2
    charge: 0.0
    file: /apps/Common/software/GPAW-setups/0.9.20000/O.PBE.gz
    compensation charges: {type: gauss,
                           rc: 0.21,
                           lmax: 2}
    cutoffs: {filter: 1.17,
              core: 0.83}
    valence states:
      #              energy  rcut
      - 2s(2.00)   -23.961   0.688
      - 2p(4.00)    -9.029   0.598
      -  s           3.251   0.688
      -  p          18.182   0.598
      -  d           0.000   0.619
  
    # Using partial waves for O as LCAO basis

Reference energy: -13950194.172252  # eV

Spin-paired calculation

Convergence criteria:
 Maximum [total energy] change in last 3 cyles: 0.0005 eV / electron
 Maximum integral of absolute [dens]ity change: 0.0001 electrons / valence electron
 Maximum integral of absolute [eigenst]ate change: 4e-08 eV^2 / valence electron
 Maximum number of scf [iter]ations: 333
 (Square brackets indicate name in SCF output, whereas a 'c' in
 the SCF output indicates the quantity has converged.)

Symmetries present (total): 2

  ( 1  0  0)  ( 0  1  0)
  ( 0  1  0)  ( 1  0  0)
  ( 0  0  1)  ( 0  0  1)

16 k-points: 4 x 4 x 1 Monkhorst-Pack grid
6 k-points in the irreducible part of the Brillouin zone
       k-points in crystal coordinates                weights
   0:     0.12500000   -0.12500000    0.00000000          2/16
   1:     0.12500000    0.12500000    0.00000000          2/16
   2:     0.37500000   -0.37500000    0.00000000          2/16
   3:     0.37500000   -0.12500000    0.00000000          4/16
   4:     0.37500000    0.12500000    0.00000000          4/16
   5:     0.37500000    0.37500000    0.00000000          2/16

Wave functions: Plane wave expansion
  Cutoff energy: 450.000 eV
  Number of coefficients (min, max): 24769, 24813
  Pulay-stress correction: 0.000000 eV/Ang^3 (de/decut=0.000000)
  Using FFTW library
  ScaLapack parameters: grid=1x1, blocksize=None
  Wavefunction extrapolation:
    Improved wavefunction reuse through dual PAW basis 

Occupation numbers: Fermi-Dirac:
  width: 0.1000  # eV
 

Eigensolver
   Davidson(niter=2) 

Densities:
  Coarse grid: 45*45*84 grid
  Fine grid: 90*90*168 grid
  Total Charge: 0.000000 

Density mixing:
  Method: separate
  Backend: pulay
  Linear mixing parameter: 0.05
  old densities: 5
  Damping of long wavelength oscillations: 50 

Hamiltonian:
  XC and Coulomb potentials evaluated on a 90*90*168 grid
  Using the PBE Exchange-Correlation functional
  External potential:
    NoExternalPotential
 

XC parameters: PBE with 2 nearest neighbor stencil

Memory estimate:
  Process memory now: 783.61 MiB
  Calculator: 310.60 MiB
    Density: 10.04 MiB
      Arrays: 4.23 MiB
      Localized functions: 4.11 MiB
      Mixer: 1.70 MiB
    Hamiltonian: 2.87 MiB
      Arrays: 2.77 MiB
      XC: 0.00 MiB
      Poisson: 0.00 MiB
      vbar: 0.10 MiB
    Wavefunctions: 297.70 MiB
      Arrays psit_nG: 211.27 MiB
      Eigensolver: 77.60 MiB
      Projections: 0.53 MiB
      Projectors: 1.42 MiB
      PW-descriptor: 6.88 MiB

Total number of cores used: 16
Parallelization over k-points: 2
Domain decomposition: 2 x 2 x 2

Number of atoms: 28
Number of atomic orbitals: 247
Number of bands in calculation: 186
Number of valence electrons: 303
Bands to converge: occupied

... initialized

Initializing position-dependent things.

Density initialized from atomic densities
Creating initial wave functions:
  186 bands from LCAO basis set

                                              
                                              
                                              
                                              
                                              
                                              
                                              
                  Au     Au     Au            
           O                                  
            Au     AAu    AAu    Au           
                                              
       Au     Au     AAu    Au                
        Au     Au     AAu    Au     Au        
                                              
                 Au     Au     Au             
                                              
           Au      Au     Au                  
                                              
                                              
                                              
                                              

Positions:
   0 Au     1.476793    0.852627    6.000000    ( 0.0000,  0.0000,  0.0000)
   1 Au     4.430378    0.852627    6.000000    ( 0.0000,  0.0000,  0.0000)
   2 Au     7.383963    0.852627    6.000000    ( 0.0000,  0.0000,  0.0000)
   3 Au     2.953585    3.410506    6.000000    ( 0.0000,  0.0000,  0.0000)
   4 Au     5.907170    3.410506    6.000000    ( 0.0000,  0.0000,  0.0000)
   5 Au     8.860755    3.410506    6.000000    ( 0.0000,  0.0000,  0.0000)
   6 Au     4.430378    5.968386    6.000000    ( 0.0000,  0.0000,  0.0000)
   7 Au     7.383963    5.968386    6.000000    ( 0.0000,  0.0000,  0.0000)
   8 Au    10.337548    5.968386    6.000000    ( 0.0000,  0.0000,  0.0000)
   9 Au    -0.000000    1.705253    8.411592    ( 0.0000,  0.0000,  0.0000)
  10 Au     2.953585    1.705253    8.411592    ( 0.0000,  0.0000,  0.0000)
  11 Au     5.907170    1.705253    8.411592    ( 0.0000,  0.0000,  0.0000)
  12 Au     1.476793    4.263133    8.411592    ( 0.0000,  0.0000,  0.0000)
  13 Au     4.430378    4.263133    8.411592    ( 0.0000,  0.0000,  0.0000)
  14 Au     7.383963    4.263133    8.411592    ( 0.0000,  0.0000,  0.0000)
  15 Au     2.953585    6.821012    8.411592    ( 0.0000,  0.0000,  0.0000)
  16 Au     5.907170    6.821012    8.411592    ( 0.0000,  0.0000,  0.0000)
  17 Au     8.860755    6.821012    8.411592    ( 0.0000,  0.0000,  0.0000)
  18 Au     0.000000    0.000000   10.823184    ( 0.0000,  0.0000,  0.0000)
  19 Au     2.953585    0.000000   10.823184    ( 0.0000,  0.0000,  0.0000)
  20 Au     5.907170    0.000000   10.823184    ( 0.0000,  0.0000,  0.0000)
  21 Au     1.476793    2.557880   10.823184    ( 0.0000,  0.0000,  0.0000)
  22 Au     4.430378    2.557880   10.823184    ( 0.0000,  0.0000,  0.0000)
  23 Au     7.383963    2.557880   10.823184    ( 0.0000,  0.0000,  0.0000)
  24 Au     2.953585    5.115759   10.823184    ( 0.0000,  0.0000,  0.0000)
  25 Au     5.907170    5.115759   10.823184    ( 0.0000,  0.0000,  0.0000)
  26 Au     8.860755    5.115759   10.823184    ( 0.0000,  0.0000,  0.0000)
  27 O      1.476793    0.852627   12.823184    ( 0.0000,  0.0000,  0.0000)

Unit cell:
           periodic     x           y           z      points  spacing
  1. axis:    yes    8.860755    0.000000    0.000000    45     0.1705
  2. axis:    yes    4.430378    7.673639    0.000000    45     0.1705
  3. axis:    no     0.000000    0.000000   16.823184    84     0.2003

  Lengths:   8.860755   8.860755  16.823184
  Angles:   90.000000  90.000000  60.000000

Effective grid spacing dv^(1/3) = 0.1888

     iter     time        total  log10-change:
                         energy  eigst   dens
iter:   1 11:46:48   -93.197284
iter:   2 11:46:53   -89.234516  -1.75  -1.32
iter:   3 11:46:59   -86.602584  -1.69  -1.35
iter:   4 11:47:04   -86.701366  -1.81  -1.42
iter:   5 11:47:10   -82.614638  -1.70  -1.42
iter:   6 11:47:15   -82.024241  -1.94  -1.72
iter:   7 11:47:20   -82.013739  -3.22  -1.99
iter:   8 11:47:26   -82.012899c -3.30  -2.00
iter:   9 11:47:31   -81.796590  -2.20  -2.04
iter:  10 11:47:36   -81.773183  -3.38  -2.43
iter:  11 11:47:42   -81.740266c -3.16  -2.39
iter:  12 11:47:47   -81.676429c -3.40  -2.44
iter:  13 11:47:53   -81.673648c -4.21  -2.87
iter:  14 11:47:58   -81.669312c -3.98  -2.88
iter:  15 11:48:03   -81.666346c -4.78  -3.05
iter:  16 11:48:09   -81.666713c -5.10  -3.09
iter:  17 11:48:14   -81.666646c -5.12  -3.08
iter:  18 11:48:19   -81.665583c -5.42  -3.07
iter:  19 11:48:25   -81.665110c -4.87  -3.13
iter:  20 11:48:30   -81.664953c -5.75  -3.24
iter:  21 11:48:36   -81.665086c -6.06  -3.37
iter:  22 11:48:41   -81.664945c -5.87  -3.45
iter:  23 11:48:46   -81.664938c -5.96  -3.58
iter:  24 11:48:52   -81.664773c -5.71  -3.62
iter:  25 11:48:57   -81.664838c -5.96  -3.71
iter:  26 11:49:03   -81.664770c -6.65  -4.01c
iter:  27 11:49:08   -81.664748c -7.03  -4.20c
iter:  28 11:49:13   -81.664717c -6.70  -4.28c
iter:  29 11:49:19   -81.664745c -7.50c -4.39c

Converged after 29 iterations.

Dipole moment: (-0.989267, -0.571153, -0.708611) |e|*Ang

Energy contributions relative to reference atoms: (reference = -13950194.172252)

Kinetic:       -315.727797
Potential:     +256.208431
External:        +0.000000
XC:             -24.992912
Entropy (-ST):   -0.298693
Local:           +2.996879
--------------------------
Free energy:    -81.814092
Extrapolated:   -81.664745

Showing only first 2 kpts
 Kpt  Band  Eigenvalues  Occupancy
  0   149     -0.15261    1.99881
  0   150      0.05630    1.99044
  0   151      0.16555    1.97176
  0   152      0.26277    1.92704

  1   149     -0.58998    1.99999
  1   150     -0.41141    1.99991
  1   151      0.14226    1.97757
  1   152      0.16207    1.97272


Fermi level: 0.59016

No gap

Forces in eV/Ang:
  0 Au   -0.00124   -0.00071   -0.10340
  1 Au   -0.01041    0.01597   -0.05942
  2 Au    0.00501   -0.01467   -0.05992
  3 Au    0.00862   -0.01700   -0.05942
  4 Au   -0.00847   -0.00489   -0.00045
  5 Au   -0.00740   -0.00124   -0.05743
  6 Au   -0.01020    0.01168   -0.05992
  7 Au   -0.00478   -0.00579   -0.05743
  8 Au    0.01004    0.00580    0.07723
  9 Au    0.00546    0.00223    0.03584
 10 Au   -0.00184   -0.00106    0.01978
 11 Au   -0.00257   -0.00551    0.02768
 12 Au    0.00293   -0.15715    0.13579
 13 Au   -0.00606    0.00053    0.02768
 14 Au    0.00738    0.00426    0.03493
 15 Au    0.13348    0.07707    0.13849
 16 Au    0.00466    0.00362    0.03584
 17 Au   -0.13464    0.08111    0.13579
 18 Au    0.12070    0.06969    0.80000
 19 Au   -0.13224    0.07625    0.81117
 20 Au    0.00953    0.01371   -0.00215
 21 Au   -0.00009   -0.15265    0.81117
 22 Au    0.12177    0.07031    0.00236
 23 Au   -0.11625    0.06489    0.00209
 24 Au    0.01664    0.00140   -0.00215
 25 Au   -0.00193   -0.13312    0.00209
 26 Au   -0.00971   -0.00560    0.00277
 27 O     0.00213    0.00123   -2.65796

System changes: positions 

Initializing position-dependent things.

Density initialized from wave functions
                                              
                                              
                                              
                                              
                                              
                                              
                                              
                  Au     Au     Au            
           O                                  
            Au     AAu    AAu    Au           
       Au     Au     AAu    Au                
                                              
        Au     Au     AAu    Au     Au        
                                              
                 Au     Au     Au             
                                              
           Au      Au     Au                  
                                              
                                              
                                              
                                              

Positions:
   0 Au     1.476793    0.852627    6.000000    ( 0.0000,  0.0000,  0.0000)
   1 Au     4.430378    0.852627    6.000000    ( 0.0000,  0.0000,  0.0000)
   2 Au     7.383963    0.852627    6.000000    ( 0.0000,  0.0000,  0.0000)
   3 Au     2.953585    3.410506    6.000000    ( 0.0000,  0.0000,  0.0000)
   4 Au     5.907170    3.410506    6.000000    ( 0.0000,  0.0000,  0.0000)
   5 Au     8.860755    3.410506    6.000000    ( 0.0000,  0.0000,  0.0000)
   6 Au     4.430378    5.968386    6.000000    ( 0.0000,  0.0000,  0.0000)
   7 Au     7.383963    5.968386    6.000000    ( 0.0000,  0.0000,  0.0000)
   8 Au    10.337548    5.968386    6.000000    ( 0.0000,  0.0000,  0.0000)
   9 Au    -0.000000    1.705253    8.411592    ( 0.0000,  0.0000,  0.0000)
  10 Au     2.953585    1.705253    8.411592    ( 0.0000,  0.0000,  0.0000)
  11 Au     5.907170    1.705253    8.411592    ( 0.0000,  0.0000,  0.0000)
  12 Au     1.476793    4.263133    8.411592    ( 0.0000,  0.0000,  0.0000)
  13 Au     4.430378    4.263133    8.411592    ( 0.0000,  0.0000,  0.0000)
  14 Au     7.383963    4.263133    8.411592    ( 0.0000,  0.0000,  0.0000)
  15 Au     2.953585    6.821012    8.411592    ( 0.0000,  0.0000,  0.0000)
  16 Au     5.907170    6.821012    8.411592    ( 0.0000,  0.0000,  0.0000)
  17 Au     8.860755    6.821012    8.411592    ( 0.0000,  0.0000,  0.0000)
  18 Au     0.000000    0.000000   10.823184    ( 0.0000,  0.0000,  0.0000)
  19 Au     2.953585    0.000000   10.823184    ( 0.0000,  0.0000,  0.0000)
  20 Au     5.907170    0.000000   10.823184    ( 0.0000,  0.0000,  0.0000)
  21 Au     1.476793    2.557880   10.823184    ( 0.0000,  0.0000,  0.0000)
  22 Au     4.430378    2.557880   10.823184    ( 0.0000,  0.0000,  0.0000)
  23 Au     7.383963    2.557880   10.823184    ( 0.0000,  0.0000,  0.0000)
  24 Au     2.953585    5.115759   10.823184    ( 0.0000,  0.0000,  0.0000)
  25 Au     5.907170    5.115759   10.823184    ( 0.0000,  0.0000,  0.0000)
  26 Au     8.860755    5.115759   10.823184    ( 0.0000,  0.0000,  0.0000)
  27 O      1.477113    0.852812   12.423184    ( 0.0000,  0.0000,  0.0000)

Unit cell:
           periodic     x           y           z      points  spacing
  1. axis:    yes    8.860755    0.000000    0.000000    45     0.1705
  2. axis:    yes    4.430378    7.673639    0.000000    45     0.1705
  3. axis:    no     0.000000    0.000000   16.823184    84     0.2003

  Lengths:   8.860755   8.860755  16.823184
  Angles:   90.000000  90.000000  60.000000

Effective grid spacing dv^(1/3) = 0.1888

     iter     time        total  log10-change:
                         energy  eigst   dens
iter:   1 11:49:26   -88.184750  -1.87
iter:   2 11:49:32   -82.937176  -1.83  -1.64
iter:   3 11:49:37   -82.760346  -3.47  -2.23
iter:   4 11:49:42   -82.685788  -3.22  -2.48
iter:   5 11:49:48   -82.655397c -2.88  -2.65
iter:   6 11:49:53   -82.641898c -3.97  -2.90
iter:   7 11:49:58   -82.628081c -3.63  -2.98
iter:   8 11:50:04   -82.627438c -4.74  -3.20
iter:   9 11:50:09   -82.627044c -5.12  -3.38
iter:  10 11:50:14   -82.626849c -5.07  -3.50
iter:  11 11:50:20   -82.626602c -5.48  -3.65
iter:  12 11:50:25   -82.626413c -5.46  -3.79
iter:  13 11:50:31   -82.626425c -6.36  -4.01c
iter:  14 11:50:36   -82.626425c -6.94  -4.11c
iter:  15 11:50:41   -82.626423c -6.47  -4.21c
iter:  16 11:50:47   -82.626420c -7.63c -4.47c

Converged after 16 iterations.

Dipole moment: (-1.059881, -0.611922, -0.430660) |e|*Ang

Energy contributions relative to reference atoms: (reference = -13950194.172252)

Kinetic:       -308.528763
Potential:     +249.860492
External:        +0.000000
XC:             -26.838146
Entropy (-ST):   -0.271958
Local:           +3.015976
--------------------------
Free energy:    -82.762399
Extrapolated:   -82.626420

Showing only first 2 kpts
 Kpt  Band  Eigenvalues  Occupancy
  0   149     -0.20404    1.99975
  0   150      0.05164    1.99681
  0   151      0.21118    1.98437
  0   152      0.32740    1.95086

  1   149     -0.54583    1.99999
  1   150     -0.34073    1.99994
  1   151      0.10827    1.99439
  1   152      0.11914    1.99374


Fermi level: 0.69554

No gap

Forces in eV/Ang:
  0 Au    0.00058    0.00033   -0.09617
  1 Au   -0.02060    0.01400   -0.06167
  2 Au    0.01377   -0.02083   -0.06255
  3 Au    0.00183   -0.02484   -0.06167
  4 Au   -0.00846   -0.00488    0.00237
  5 Au   -0.00083   -0.00598   -0.06200
  6 Au   -0.01116    0.02234   -0.06255
  7 Au   -0.00559    0.00227   -0.06200
  8 Au    0.01227    0.00708    0.10619
  9 Au   -0.01170    0.01533    0.00462
 10 Au    0.01727    0.00997   -0.01421
 11 Au   -0.00538   -0.00956    0.02432
 12 Au    0.00447   -0.22405    0.18331
 13 Au   -0.01097    0.00012    0.02432
 14 Au    0.01325    0.00765    0.03389
 15 Au    0.18736    0.10817    0.18754
 16 Au    0.00743   -0.01780    0.00462
 17 Au   -0.19180    0.11589    0.18331
 18 Au   -0.24104   -0.13916    0.55758
 19 Au    0.22077   -0.13223    0.57284
 20 Au    0.01212    0.01143   -0.02923
 21 Au   -0.00413    0.25731    0.57284
 22 Au    0.19244    0.11111   -0.03575
 23 Au   -0.18480    0.10651   -0.03384
 24 Au    0.01596    0.00479   -0.02923
 25 Au   -0.00016   -0.21330   -0.03384
 26 Au   -0.01122   -0.00648   -0.02437
 27 O     0.00744    0.00430   -1.81028

System changes: positions 

Initializing position-dependent things.

Density initialized from wave functions
                                              
                                              
                                              
                                              
                                              
                                              
                  Au     Au     Au            
                                              
           OAu     AAu    AAu    Au           
                                              
       Au     Au     AAu    Au                
        Au     Au     AAu    Au     Au        
                                              
                 Au     Au     Au             
                                              
           Au      Au     Au                  
                                              
                                              
                                              
                                              

Positions:
   0 Au     1.476793    0.852627    6.000000    ( 0.0000,  0.0000,  0.0000)
   1 Au     4.430378    0.852627    6.000000    ( 0.0000,  0.0000,  0.0000)
   2 Au     7.383963    0.852627    6.000000    ( 0.0000,  0.0000,  0.0000)
   3 Au     2.953585    3.410506    6.000000    ( 0.0000,  0.0000,  0.0000)
   4 Au     5.907170    3.410506    6.000000    ( 0.0000,  0.0000,  0.0000)
   5 Au     8.860755    3.410506    6.000000    ( 0.0000,  0.0000,  0.0000)
   6 Au     4.430378    5.968386    6.000000    ( 0.0000,  0.0000,  0.0000)
   7 Au     7.383963    5.968386    6.000000    ( 0.0000,  0.0000,  0.0000)
   8 Au    10.337548    5.968386    6.000000    ( 0.0000,  0.0000,  0.0000)
   9 Au    -0.000000    1.705253    8.411592    ( 0.0000,  0.0000,  0.0000)
  10 Au     2.953585    1.705253    8.411592    ( 0.0000,  0.0000,  0.0000)
  11 Au     5.907170    1.705253    8.411592    ( 0.0000,  0.0000,  0.0000)
  12 Au     1.476793    4.263133    8.411592    ( 0.0000,  0.0000,  0.0000)
  13 Au     4.430378    4.263133    8.411592    ( 0.0000,  0.0000,  0.0000)
  14 Au     7.383963    4.263133    8.411592    ( 0.0000,  0.0000,  0.0000)
  15 Au     2.953585    6.821012    8.411592    ( 0.0000,  0.0000,  0.0000)
  16 Au     5.907170    6.821012    8.411592    ( 0.0000,  0.0000,  0.0000)
  17 Au     8.860755    6.821012    8.411592    ( 0.0000,  0.0000,  0.0000)
  18 Au     0.000000    0.000000   10.823184    ( 0.0000,  0.0000,  0.0000)
  19 Au     2.953585    0.000000   10.823184    ( 0.0000,  0.0000,  0.0000)
  20 Au     5.907170    0.000000   10.823184    ( 0.0000,  0.0000,  0.0000)
  21 Au     1.476793    2.557880   10.823184    ( 0.0000,  0.0000,  0.0000)
  22 Au     4.430378    2.557880   10.823184    ( 0.0000,  0.0000,  0.0000)
  23 Au     7.383963    2.557880   10.823184    ( 0.0000,  0.0000,  0.0000)
  24 Au     2.953585    5.115759   10.823184    ( 0.0000,  0.0000,  0.0000)
  25 Au     5.907170    5.115759   10.823184    ( 0.0000,  0.0000,  0.0000)
  26 Au     8.860755    5.115759   10.823184    ( 0.0000,  0.0000,  0.0000)
  27 O      1.478127    0.853397   12.153328    ( 0.0000,  0.0000,  0.0000)

Unit cell:
           periodic     x           y           z      points  spacing
  1. axis:    yes    8.860755    0.000000    0.000000    45     0.1705
  2. axis:    yes    4.430378    7.673639    0.000000    45     0.1705
  3. axis:    no     0.000000    0.000000   16.823184    84     0.2003

  Lengths:   8.860755   8.860755  16.823184
  Angles:   90.000000  90.000000  60.000000

Effective grid spacing dv^(1/3) = 0.1888

     iter     time        total  log10-change:
                         energy  eigst   dens
iter:   1 11:50:54   -86.447423  -1.91
iter:   2 11:50:59   -83.069934  -2.09  -1.77
iter:   3 11:51:05   -82.980370  -3.27  -2.33
iter:   4 11:51:10   -82.923432c -3.16  -2.53
iter:   5 11:51:16   -82.901679c -3.18  -2.76
iter:   6 11:51:21   -82.887175c -4.04  -2.92
iter:   7 11:51:26   -82.885968c -5.09  -3.08
iter:   8 11:51:32   -82.882807c -4.03  -3.12
iter:   9 11:51:37   -82.882673c -5.08  -3.41
iter:  10 11:51:42   -82.882215c -5.44  -3.49
iter:  11 11:51:48   -82.882093c -5.34  -3.65
iter:  12 11:51:53   -82.882098c -5.79  -3.82
iter:  13 11:51:58   -82.882062c -5.78  -3.91
iter:  14 11:52:04   -82.882062c -6.89  -4.16c
iter:  15 11:52:09   -82.882031c -6.34  -4.15c
iter:  16 11:52:15   -82.882036c -6.41  -4.31c
iter:  17 11:52:20   -82.882034c -7.60c -4.51c

Converged after 17 iterations.

Dipole moment: (-1.156908, -0.667941, -0.253673) |e|*Ang

Energy contributions relative to reference atoms: (reference = -13950194.172252)

Kinetic:       -297.877806
Potential:     +240.718922
External:        +0.000000
XC:             -28.660866
Entropy (-ST):   -0.261574
Local:           +3.068502
--------------------------
Free energy:    -83.012821
Extrapolated:   -82.882034

Showing only first 2 kpts
 Kpt  Band  Eigenvalues  Occupancy
  0   149     -0.17229    1.99983
  0   150      0.10403    1.99723
  0   151      0.29325    1.98178
  0   152      0.39377    1.95099

  1   149     -0.49451    1.99999
  1   150     -0.28754    1.99994
  1   151      0.17332    1.99447
  1   152      0.18169    1.99399


Fermi level: 0.76218

No gap

Forces in eV/Ang:
  0 Au    0.00264    0.00152   -0.08761
  1 Au   -0.02541    0.00807   -0.05903
  2 Au    0.01650   -0.02588   -0.05911
  3 Au   -0.00571   -0.02604   -0.05903
  4 Au   -0.00742   -0.00429    0.00206
  5 Au    0.00515   -0.00668   -0.06192
  6 Au   -0.01416    0.02723   -0.05911
  7 Au   -0.00321    0.00780   -0.06192
  8 Au    0.01255    0.00725    0.10894
  9 Au   -0.03274    0.02969   -0.03267
 10 Au    0.03878    0.02239   -0.05005
 11 Au   -0.00733   -0.01333    0.01905
 12 Au    0.00548   -0.24727    0.20128
 13 Au   -0.01521    0.00032    0.01905
 14 Au    0.01828    0.01056    0.02986
 15 Au    0.20436    0.11799    0.20661
 16 Au    0.00935   -0.04320   -0.03267
 17 Au   -0.21140    0.12838    0.20128
 18 Au   -1.02098   -0.58947   -0.02312
 19 Au    1.00055   -0.58598   -0.01331
 20 Au    0.01460    0.00148   -0.04766
 21 Au   -0.00720    1.15950   -0.01331
 22 Au    0.24295    0.14027   -0.05633
 23 Au   -0.23373    0.13809   -0.05192
 24 Au    0.00858    0.01191   -0.04766
 25 Au    0.00273   -0.27146   -0.05192
 26 Au   -0.00578   -0.00334   -0.04497
 27 O     0.00796    0.00460    0.15519

System changes: positions 

Initializing position-dependent things.

Density initialized from wave functions
                                              
                                              
                                              
                                              
                                              
                                              
                  Au     Au     Au            
                                              
           OAu     AAu    AAu    Au           
                                              
       Au     Au     AAu    Au                
        Au     Au     AAu    Au     Au        
                                              
                 Au     Au     Au             
                                              
           Au      Au     Au                  
                                              
                                              
                                              
                                              

Positions:
   0 Au     1.476793    0.852627    6.000000    ( 0.0000,  0.0000,  0.0000)
   1 Au     4.430378    0.852627    6.000000    ( 0.0000,  0.0000,  0.0000)
   2 Au     7.383963    0.852627    6.000000    ( 0.0000,  0.0000,  0.0000)
   3 Au     2.953585    3.410506    6.000000    ( 0.0000,  0.0000,  0.0000)
   4 Au     5.907170    3.410506    6.000000    ( 0.0000,  0.0000,  0.0000)
   5 Au     8.860755    3.410506    6.000000    ( 0.0000,  0.0000,  0.0000)
   6 Au     4.430378    5.968386    6.000000    ( 0.0000,  0.0000,  0.0000)
   7 Au     7.383963    5.968386    6.000000    ( 0.0000,  0.0000,  0.0000)
   8 Au    10.337548    5.968386    6.000000    ( 0.0000,  0.0000,  0.0000)
   9 Au    -0.000000    1.705253    8.411592    ( 0.0000,  0.0000,  0.0000)
  10 Au     2.953585    1.705253    8.411592    ( 0.0000,  0.0000,  0.0000)
  11 Au     5.907170    1.705253    8.411592    ( 0.0000,  0.0000,  0.0000)
  12 Au     1.476793    4.263133    8.411592    ( 0.0000,  0.0000,  0.0000)
  13 Au     4.430378    4.263133    8.411592    ( 0.0000,  0.0000,  0.0000)
  14 Au     7.383963    4.263133    8.411592    ( 0.0000,  0.0000,  0.0000)
  15 Au     2.953585    6.821012    8.411592    ( 0.0000,  0.0000,  0.0000)
  16 Au     5.907170    6.821012    8.411592    ( 0.0000,  0.0000,  0.0000)
  17 Au     8.860755    6.821012    8.411592    ( 0.0000,  0.0000,  0.0000)
  18 Au     0.000000    0.000000   10.823184    ( 0.0000,  0.0000,  0.0000)
  19 Au     2.953585    0.000000   10.823184    ( 0.0000,  0.0000,  0.0000)
  20 Au     5.907170    0.000000   10.823184    ( 0.0000,  0.0000,  0.0000)
  21 Au     1.476793    2.557880   10.823184    ( 0.0000,  0.0000,  0.0000)
  22 Au     4.430378    2.557880   10.823184    ( 0.0000,  0.0000,  0.0000)
  23 Au     7.383963    2.557880   10.823184    ( 0.0000,  0.0000,  0.0000)
  24 Au     2.953585    5.115759   10.823184    ( 0.0000,  0.0000,  0.0000)
  25 Au     5.907170    5.115759   10.823184    ( 0.0000,  0.0000,  0.0000)
  26 Au     8.860755    5.115759   10.823184    ( 0.0000,  0.0000,  0.0000)
  27 O      1.479132    0.853977   12.169714    ( 0.0000,  0.0000,  0.0000)

Unit cell:
           periodic     x           y           z      points  spacing
  1. axis:    yes    8.860755    0.000000    0.000000    45     0.1705
  2. axis:    yes    4.430378    7.673639    0.000000    45     0.1705
  3. axis:    no     0.000000    0.000000   16.823184    84     0.2003

  Lengths:   8.860755   8.860755  16.823184
  Angles:   90.000000  90.000000  60.000000

Effective grid spacing dv^(1/3) = 0.1888

     iter     time        total  log10-change:
                         energy  eigst   dens
iter:   1 11:52:27   -82.899504  -3.91
iter:   2 11:52:33   -82.886452  -4.70  -3.03
iter:   3 11:52:38   -82.884315c -5.02  -3.44
iter:   4 11:52:43   -82.883888c -5.44  -3.62
iter:   5 11:52:49   -82.883647c -5.22  -3.88
iter:   6 11:52:54   -82.883704c -6.03  -3.98
iter:   7 11:52:59   -82.883598c -6.24  -4.16c
iter:   8 11:53:05   -82.883596c -7.29  -4.44c
iter:   9 11:53:10   -82.883599c -6.90  -4.48c
iter:  10 11:53:16   -82.883597c -7.71c -4.72c

Converged after 10 iterations.

Dipole moment: (-1.143523, -0.660214, -0.263645) |e|*Ang

Energy contributions relative to reference atoms: (reference = -13950194.172252)

Kinetic:       -298.674508
Potential:     +241.406202
External:        +0.000000
XC:             -28.538203
Entropy (-ST):   -0.261943
Local:           +3.053884
--------------------------
Free energy:    -83.014568
Extrapolated:   -82.883597

Showing only first 2 kpts
 Kpt  Band  Eigenvalues  Occupancy
  0   149     -0.17525    1.99982
  0   150      0.10020    1.99724
  0   151      0.28713    1.98225
  0   152      0.38960    1.95131

  1   149     -0.49858    1.99999
  1   150     -0.29056    1.99994
  1   151      0.16788    1.99458
  1   152      0.17608    1.99412


Fermi level: 0.75868

No gap

Forces in eV/Ang:
  0 Au    0.00229    0.00132   -0.08713
  1 Au   -0.02715    0.00873   -0.05796
  2 Au    0.01856   -0.02524   -0.05791
  3 Au   -0.00601   -0.02788   -0.05796
  4 Au   -0.00753   -0.00435    0.00412
  5 Au    0.00556   -0.00866   -0.06060
  6 Au   -0.01258    0.02869   -0.05791
  7 Au   -0.00472    0.00915   -0.06060
  8 Au    0.01247    0.00720    0.11439
  9 Au   -0.02924    0.02721   -0.02979
 10 Au    0.03503    0.02023   -0.04737
 11 Au   -0.00697   -0.01258    0.01982
 12 Au    0.00542   -0.24470    0.20019
 13 Au   -0.01438    0.00025    0.01982
 14 Au    0.01734    0.01001    0.03053
 15 Au    0.20230    0.11680    0.20514
 16 Au    0.00895   -0.03892   -0.02979
 17 Au   -0.20920    0.12704    0.20019
 18 Au   -0.95251   -0.54993    0.02357
 19 Au    0.93647   -0.54891    0.03077
 20 Au    0.01497    0.00326   -0.04710
 21 Au   -0.00714    1.08546    0.03077
 22 Au    0.24187    0.13964   -0.05579
 23 Au   -0.23254    0.13685   -0.05166
 24 Au    0.01031    0.01134   -0.04710
 25 Au    0.00225   -0.26981   -0.05166
 26 Au   -0.00708   -0.00409   -0.04464
 27 O     0.00318    0.00184    0.02129

System changes: positions 

Initializing position-dependent things.

Density initialized from wave functions
                                              
                                              
                                              
                                              
                                              
                                              
                  Au     Au     Au            
                                              
           OAu     AAu    AAu    Au           
                                              
       Au     Au     AAu    Au                
        Au     Au     AAu    Au     Au        
                                              
                 Au     Au     Au             
                                              
           Au      Au     Au                  
                                              
                                              
                                              
                                              

Positions:
   0 Au     1.476793    0.852627    6.000000    ( 0.0000,  0.0000,  0.0000)
   1 Au     4.430378    0.852627    6.000000    ( 0.0000,  0.0000,  0.0000)
   2 Au     7.383963    0.852627    6.000000    ( 0.0000,  0.0000,  0.0000)
   3 Au     2.953585    3.410506    6.000000    ( 0.0000,  0.0000,  0.0000)
   4 Au     5.907170    3.410506    6.000000    ( 0.0000,  0.0000,  0.0000)
   5 Au     8.860755    3.410506    6.000000    ( 0.0000,  0.0000,  0.0000)
   6 Au     4.430378    5.968386    6.000000    ( 0.0000,  0.0000,  0.0000)
   7 Au     7.383963    5.968386    6.000000    ( 0.0000,  0.0000,  0.0000)
   8 Au    10.337548    5.968386    6.000000    ( 0.0000,  0.0000,  0.0000)
   9 Au    -0.000000    1.705253    8.411592    ( 0.0000,  0.0000,  0.0000)
  10 Au     2.953585    1.705253    8.411592    ( 0.0000,  0.0000,  0.0000)
  11 Au     5.907170    1.705253    8.411592    ( 0.0000,  0.0000,  0.0000)
  12 Au     1.476793    4.263133    8.411592    ( 0.0000,  0.0000,  0.0000)
  13 Au     4.430378    4.263133    8.411592    ( 0.0000,  0.0000,  0.0000)
  14 Au     7.383963    4.263133    8.411592    ( 0.0000,  0.0000,  0.0000)
  15 Au     2.953585    6.821012    8.411592    ( 0.0000,  0.0000,  0.0000)
  16 Au     5.907170    6.821012    8.411592    ( 0.0000,  0.0000,  0.0000)
  17 Au     8.860755    6.821012    8.411592    ( 0.0000,  0.0000,  0.0000)
  18 Au     0.000000    0.000000   10.823184    ( 0.0000,  0.0000,  0.0000)
  19 Au     2.953585    0.000000   10.823184    ( 0.0000,  0.0000,  0.0000)
  20 Au     5.907170    0.000000   10.823184    ( 0.0000,  0.0000,  0.0000)
  21 Au     1.476793    2.557880   10.823184    ( 0.0000,  0.0000,  0.0000)
  22 Au     4.430378    2.557880   10.823184    ( 0.0000,  0.0000,  0.0000)
  23 Au     7.383963    2.557880   10.823184    ( 0.0000,  0.0000,  0.0000)
  24 Au     2.953585    5.115759   10.823184    ( 0.0000,  0.0000,  0.0000)
  25 Au     5.907170    5.115759   10.823184    ( 0.0000,  0.0000,  0.0000)
  26 Au     8.860755    5.115759   10.823184    ( 0.0000,  0.0000,  0.0000)
  27 O      1.479508    0.854194   12.172168    ( 0.0000,  0.0000,  0.0000)

Unit cell:
           periodic     x           y           z      points  spacing
  1. axis:    yes    8.860755    0.000000    0.000000    45     0.1705
  2. axis:    yes    4.430378    7.673639    0.000000    45     0.1705
  3. axis:    no     0.000000    0.000000   16.823184    84     0.2003

  Lengths:   8.860755   8.860755  16.823184
  Angles:   90.000000  90.000000  60.000000

Effective grid spacing dv^(1/3) = 0.1888

     iter     time        total  log10-change:
                         energy  eigst   dens
iter:   1 11:53:23   -82.884113  -5.53
iter:   2 11:53:28   -82.883726  -6.34  -3.88
iter:   3 11:53:34   -82.883625c -6.71  -4.21c
iter:   4 11:53:39   -82.883605c -6.95  -4.44c
iter:   5 11:53:44   -82.883599c -6.77  -4.69c
iter:   6 11:53:50   -82.883606c -7.86c -4.70c

Converged after 6 iterations.

Dipole moment: (-1.140586, -0.658517, -0.265035) |e|*Ang

Energy contributions relative to reference atoms: (reference = -13950194.172252)

Kinetic:       -298.669290
Potential:     +241.390429
External:        +0.000000
XC:             -28.527950
Entropy (-ST):   -0.261988
Local:           +3.054199
--------------------------
Free energy:    -83.014600
Extrapolated:   -82.883606

Showing only first 2 kpts
 Kpt  Band  Eigenvalues  Occupancy
  0   149     -0.17572    1.99982
  0   150      0.09961    1.99724
  0   151      0.28609    1.98233
  0   152      0.38892    1.95138

  1   149     -0.49920    1.99999
  1   150     -0.29102    1.99994
  1   151      0.16697    1.99460
  1   152      0.17510    1.99414


Fermi level: 0.75813

No gap

Forces in eV/Ang:
  0 Au    0.00234    0.00135   -0.08794
  1 Au   -0.02651    0.00884   -0.05811
  2 Au    0.01790   -0.02511   -0.05818
  3 Au   -0.00560   -0.02738   -0.05811
  4 Au   -0.00760   -0.00439    0.00444
  5 Au    0.00523   -0.00815   -0.06081
  6 Au   -0.01280    0.02805   -0.05818
  7 Au   -0.00444    0.00861   -0.06081
  8 Au    0.01241    0.00717    0.11489
  9 Au   -0.02805    0.02676   -0.02631
 10 Au    0.03408    0.01968   -0.04424
 11 Au   -0.00719   -0.01171    0.01966
 12 Au    0.00535   -0.24295    0.19897
 13 Au   -0.01374   -0.00037    0.01966
 14 Au    0.01672    0.00965    0.03039
 15 Au    0.20055    0.11579    0.20374
 16 Au    0.00914   -0.03767   -0.02631
 17 Au   -0.20772    0.12611    0.19897
 18 Au   -0.94094   -0.54325    0.02770
 19 Au    0.92579   -0.54349    0.03353
 20 Au    0.01532    0.00397   -0.04763
 21 Au   -0.00778    1.07351    0.03353
 22 Au    0.24053    0.13887   -0.05607
 23 Au   -0.23040    0.13552   -0.05135
 24 Au    0.01110    0.01129   -0.04763
 25 Au    0.00217   -0.26729   -0.05135
 26 Au   -0.00779   -0.00450   -0.04531
 27 O     0.00323    0.00187    0.01374

System changes: positions 

Initializing position-dependent things.

Density initialized from wave functions
                                              
                                              
                                              
                                              
                                              
                                              
                  Au     Au     Au            
                                              
           OAu     AAu    AAu    Au           
                                              
       Au     Au     AAu    Au                
        Au     Au     AAu    Au     Au        
                                              
                 Au     Au     Au             
                                              
           Au      Au     Au                  
                                              
                                              
                                              
                                              

Positions:
   0 Au     1.476793    0.852627    6.000000    ( 0.0000,  0.0000,  0.0000)
   1 Au     4.430378    0.852627    6.000000    ( 0.0000,  0.0000,  0.0000)
   2 Au     7.383963    0.852627    6.000000    ( 0.0000,  0.0000,  0.0000)
   3 Au     2.953585    3.410506    6.000000    ( 0.0000,  0.0000,  0.0000)
   4 Au     5.907170    3.410506    6.000000    ( 0.0000,  0.0000,  0.0000)
   5 Au     8.860755    3.410506    6.000000    ( 0.0000,  0.0000,  0.0000)
   6 Au     4.430378    5.968386    6.000000    ( 0.0000,  0.0000,  0.0000)
   7 Au     7.383963    5.968386    6.000000    ( 0.0000,  0.0000,  0.0000)
   8 Au    10.337548    5.968386    6.000000    ( 0.0000,  0.0000,  0.0000)
   9 Au    -0.000000    1.705253    8.411592    ( 0.0000,  0.0000,  0.0000)
  10 Au     2.953585    1.705253    8.411592    ( 0.0000,  0.0000,  0.0000)
  11 Au     5.907170    1.705253    8.411592    ( 0.0000,  0.0000,  0.0000)
  12 Au     1.476793    4.263133    8.411592    ( 0.0000,  0.0000,  0.0000)
  13 Au     4.430378    4.263133    8.411592    ( 0.0000,  0.0000,  0.0000)
  14 Au     7.383963    4.263133    8.411592    ( 0.0000,  0.0000,  0.0000)
  15 Au     2.953585    6.821012    8.411592    ( 0.0000,  0.0000,  0.0000)
  16 Au     5.907170    6.821012    8.411592    ( 0.0000,  0.0000,  0.0000)
  17 Au     8.860755    6.821012    8.411592    ( 0.0000,  0.0000,  0.0000)
  18 Au     0.000000    0.000000   10.823184    ( 0.0000,  0.0000,  0.0000)
  19 Au     2.953585    0.000000   10.823184    ( 0.0000,  0.0000,  0.0000)
  20 Au     5.907170    0.000000   10.823184    ( 0.0000,  0.0000,  0.0000)
  21 Au     1.476793    2.557880   10.823184    ( 0.0000,  0.0000,  0.0000)
  22 Au     4.430378    2.557880   10.823184    ( 0.0000,  0.0000,  0.0000)
  23 Au     7.383963    2.557880   10.823184    ( 0.0000,  0.0000,  0.0000)
  24 Au     2.953585    5.115759   10.823184    ( 0.0000,  0.0000,  0.0000)
  25 Au     5.907170    5.115759   10.823184    ( 0.0000,  0.0000,  0.0000)
  26 Au     8.860755    5.115759   10.823184    ( 0.0000,  0.0000,  0.0000)
  27 O      1.480068    0.854518   12.173092    ( 0.0000,  0.0000,  0.0000)

Unit cell:
           periodic     x           y           z      points  spacing
  1. axis:    yes    8.860755    0.000000    0.000000    45     0.1705
  2. axis:    yes    4.430378    7.673639    0.000000    45     0.1705
  3. axis:    no     0.000000    0.000000   16.823184    84     0.2003

  Lengths:   8.860755   8.860755  16.823184
  Angles:   90.000000  90.000000  60.000000

Effective grid spacing dv^(1/3) = 0.1888

     iter     time        total  log10-change:
                         energy  eigst   dens
iter:   1 11:53:57   -82.883646  -6.23
iter:   2 11:54:02   -82.883612  -7.53c -4.30c
iter:   3 11:54:08   -82.883597c -7.45c -4.47c

Converged after 3 iterations.

Dipole moment: (-1.138491, -0.657308, -0.265745) |e|*Ang

Energy contributions relative to reference atoms: (reference = -13950194.172252)

Kinetic:       -298.740954
Potential:     +241.452520
External:        +0.000000
XC:             -28.517675
Entropy (-ST):   -0.262002
Local:           +3.053513
--------------------------
Free energy:    -83.014598
Extrapolated:   -82.883597

Showing only first 2 kpts
 Kpt  Band  Eigenvalues  Occupancy
  0   149     -0.17608    1.99982
  0   150      0.09921    1.99724
  0   151      0.28528    1.98237
  0   152      0.38829    1.95139

  1   149     -0.49969    1.99999
  1   150     -0.29158    1.99994
  1   151      0.16644    1.99460
  1   152      0.17458    1.99414


Fermi level: 0.75754

No gap

Forces in eV/Ang:
  0 Au    0.00238    0.00137   -0.09211
  1 Au   -0.02434    0.00872   -0.06193
  2 Au    0.01575   -0.02539   -0.06214
  3 Au   -0.00462   -0.02544   -0.06193
  4 Au   -0.00756   -0.00437    0.00123
  5 Au    0.00422   -0.00623   -0.06485
  6 Au   -0.01412    0.02633   -0.06214
  7 Au   -0.00329    0.00677   -0.06485
  8 Au    0.01258    0.00726    0.11101
  9 Au   -0.02934    0.02748   -0.02503
 10 Au    0.03540    0.02044   -0.04223
 11 Au   -0.00722   -0.01169    0.01961
 12 Au    0.00527   -0.24332    0.19963
 13 Au   -0.01374   -0.00040    0.01961
 14 Au    0.01678    0.00969    0.03035
 15 Au    0.20110    0.11610    0.20545
 16 Au    0.00913   -0.03915   -0.02503
 17 Au   -0.20809    0.12623    0.19963
 18 Au   -0.94485   -0.54551    0.02989
 19 Au    0.93131   -0.54288    0.03977
 20 Au    0.01469    0.00463   -0.04363
 21 Au   -0.00450    1.07798    0.03977
 22 Au    0.23828    0.13757   -0.05169
 23 Au   -0.23059    0.13586   -0.04874
 24 Au    0.01135    0.01041   -0.04363
 25 Au    0.00236   -0.26763   -0.04874
 26 Au   -0.00827   -0.00478   -0.04095
 27 O     0.01983    0.01145    0.01881

System changes: positions 

Initializing position-dependent things.

Density initialized from wave functions
                                              
                                              
                                              
                                              
                                              
                                              
                                              
                  Au     Au     Au            
            AO      Au     Au                 
                   Au     Au     Au           
       Au     Au     AAu    Au                
                                              
        Au     Au     AAu    Au     Au        
                                              
                 Au     Au     Au             
                                              
           Au      Au     Au                  
                                              
                                              
                                              
                                              

Positions:
   0 Au     1.476793    0.852627    6.000000    ( 0.0000,  0.0000,  0.0000)
   1 Au     4.430378    0.852627    6.000000    ( 0.0000,  0.0000,  0.0000)
   2 Au     7.383963    0.852627    6.000000    ( 0.0000,  0.0000,  0.0000)
   3 Au     2.953585    3.410506    6.000000    ( 0.0000,  0.0000,  0.0000)
   4 Au     5.907170    3.410506    6.000000    ( 0.0000,  0.0000,  0.0000)
   5 Au     8.860755    3.410506    6.000000    ( 0.0000,  0.0000,  0.0000)
   6 Au     4.430378    5.968386    6.000000    ( 0.0000,  0.0000,  0.0000)
   7 Au     7.383963    5.968386    6.000000    ( 0.0000,  0.0000,  0.0000)
   8 Au    10.337548    5.968386    6.000000    ( 0.0000,  0.0000,  0.0000)
   9 Au    -0.000000    1.705253    8.411592    ( 0.0000,  0.0000,  0.0000)
  10 Au     2.953585    1.705253    8.411592    ( 0.0000,  0.0000,  0.0000)
  11 Au     5.907170    1.705253    8.411592    ( 0.0000,  0.0000,  0.0000)
  12 Au     1.476793    4.263133    8.411592    ( 0.0000,  0.0000,  0.0000)
  13 Au     4.430378    4.263133    8.411592    ( 0.0000,  0.0000,  0.0000)
  14 Au     7.383963    4.263133    8.411592    ( 0.0000,  0.0000,  0.0000)
  15 Au     2.953585    6.821012    8.411592    ( 0.0000,  0.0000,  0.0000)
  16 Au     5.907170    6.821012    8.411592    ( 0.0000,  0.0000,  0.0000)
  17 Au     8.860755    6.821012    8.411592    ( 0.0000,  0.0000,  0.0000)
  18 Au     0.000000    0.000000   10.823184    ( 0.0000,  0.0000,  0.0000)
  19 Au     2.953585    0.000000   10.823184    ( 0.0000,  0.0000,  0.0000)
  20 Au     5.907170    0.000000   10.823184    ( 0.0000,  0.0000,  0.0000)
  21 Au     1.476793    2.557880   10.823184    ( 0.0000,  0.0000,  0.0000)
  22 Au     4.430378    2.557880   10.823184    ( 0.0000,  0.0000,  0.0000)
  23 Au     7.383963    2.557880   10.823184    ( 0.0000,  0.0000,  0.0000)
  24 Au     2.953585    5.115759   10.823184    ( 0.0000,  0.0000,  0.0000)
  25 Au     5.907170    5.115759   10.823184    ( 0.0000,  0.0000,  0.0000)
  26 Au     8.860755    5.115759   10.823184    ( 0.0000,  0.0000,  0.0000)
  27 O      1.903606    1.099047   12.211738    ( 0.0000,  0.0000,  0.0000)

Unit cell:
           periodic     x           y           z      points  spacing
  1. axis:    yes    8.860755    0.000000    0.000000    45     0.1705
  2. axis:    yes    4.430378    7.673639    0.000000    45     0.1705
  3. axis:    no     0.000000    0.000000   16.823184    84     0.2003

  Lengths:   8.860755   8.860755  16.823184
  Angles:   90.000000  90.000000  60.000000

Effective grid spacing dv^(1/3) = 0.1888

     iter     time        total  log10-change:
                         energy  eigst   dens
iter:   1 11:54:15   -83.539789  -1.47
iter:   2 11:54:21   -83.220877  -3.00  -2.14
iter:   3 11:54:26   -82.766505  -2.36  -2.26
iter:   4 11:54:31   -82.740448  -2.75  -2.48
iter:   5 11:54:37   -82.668148c -3.03  -2.58
iter:   6 11:54:42   -82.652788c -3.81  -2.80
iter:   7 11:54:47   -82.649696c -3.70  -2.98
iter:   8 11:54:53   -82.648393c -4.96  -3.14
iter:   9 11:54:58   -82.644965c -4.14  -3.19
iter:  10 11:55:03   -82.644876c -5.25  -3.44
iter:  11 11:55:09   -82.644269c -5.08  -3.51
iter:  12 11:55:14   -82.644185c -5.56  -3.76
iter:  13 11:55:20   -82.644109c -5.99  -3.85
iter:  14 11:55:25   -82.644108c -6.31  -4.06c
iter:  15 11:55:30   -82.644103c -6.98  -4.16c
iter:  16 11:55:36   -82.644094c -6.85  -4.22c
iter:  17 11:55:41   -82.644082c -6.73  -4.32c
iter:  18 11:55:46   -82.644084c -7.37  -4.70c
iter:  19 11:55:52   -82.644087c -7.83c -4.81c

Converged after 19 iterations.

Dipole moment: (0.033365, 0.019263, -0.284243) |e|*Ang

Energy contributions relative to reference atoms: (reference = -13950194.172252)

Kinetic:       -296.999092
Potential:     +240.011564
External:        +0.000000
XC:             -28.606018
Entropy (-ST):   -0.260553
Local:           +3.079736
--------------------------
Free energy:    -82.774363
Extrapolated:   -82.644087

Showing only first 2 kpts
 Kpt  Band  Eigenvalues  Occupancy
  0   149     -0.18801    1.99985
  0   150      0.18261    1.99375
  0   151      0.23201    1.98978
  0   152      0.36211    1.96297

  1   149     -0.49969    1.99999
  1   150     -0.34186    1.99997
  1   151      0.17311    1.99432
  1   152      0.27827    1.98382


Fermi level: 0.75917

No gap

Forces in eV/Ang:
  0 Au   -0.02863   -0.01653   -0.09148
  1 Au   -0.00005   -0.00193   -0.06694
  2 Au    0.02242   -0.00203   -0.04401
  3 Au   -0.00169    0.00092   -0.06694
  4 Au   -0.01967   -0.01136   -0.00356
  5 Au    0.01297   -0.02025   -0.06690
  6 Au    0.00945    0.02043   -0.04401
  7 Au   -0.01106    0.02136   -0.06690
  8 Au   -0.01528   -0.00882    0.07989
  9 Au   -0.01615    0.02229   -0.00859
 10 Au    0.03777    0.02180   -0.07522
 11 Au   -0.01737   -0.01991    0.02508
 12 Au   -0.00283   -0.24775    0.20749
 13 Au   -0.02592   -0.00509    0.02508
 14 Au    0.00714    0.00412    0.01616
 15 Au    0.11674    0.06740    0.08647
 16 Au    0.01123   -0.02513   -0.00859
 17 Au   -0.21597    0.12142    0.20749
 18 Au   -0.47635   -0.27502    0.09794
 19 Au    1.11086   -0.96401   -0.34444
 20 Au    0.14276   -0.00017   -0.00923
 21 Au   -0.27942    1.44404   -0.34444
 22 Au    0.35155    0.20297   -0.09327
 23 Au   -0.18467    0.05968   -0.01922
 24 Au    0.07124    0.12372   -0.00923
 25 Au   -0.04065   -0.18977   -0.01922
 26 Au   -0.02024   -0.01169   -0.09945
 27 O    -0.53445   -0.30857    0.72776

System changes: positions 

Initializing position-dependent things.

Density initialized from wave functions
                                              
                                              
                                              
                                              
                                              
                                              
                  Au     Au     Au            
            O                                 
            Au     AAu    AAu    Au           
                                              
       Au     Au     AAu    Au                
        Au     Au     AAu    Au     Au        
                                              
                 Au     Au     Au             
                                              
           Au      Au     Au                  
                                              
                                              
                                              
                                              

Positions:
   0 Au     1.476793    0.852627    6.000000    ( 0.0000,  0.0000,  0.0000)
   1 Au     4.430378    0.852627    6.000000    ( 0.0000,  0.0000,  0.0000)
   2 Au     7.383963    0.852627    6.000000    ( 0.0000,  0.0000,  0.0000)
   3 Au     2.953585    3.410506    6.000000    ( 0.0000,  0.0000,  0.0000)
   4 Au     5.907170    3.410506    6.000000    ( 0.0000,  0.0000,  0.0000)
   5 Au     8.860755    3.410506    6.000000    ( 0.0000,  0.0000,  0.0000)
   6 Au     4.430378    5.968386    6.000000    ( 0.0000,  0.0000,  0.0000)
   7 Au     7.383963    5.968386    6.000000    ( 0.0000,  0.0000,  0.0000)
   8 Au    10.337548    5.968386    6.000000    ( 0.0000,  0.0000,  0.0000)
   9 Au    -0.000000    1.705253    8.411592    ( 0.0000,  0.0000,  0.0000)
  10 Au     2.953585    1.705253    8.411592    ( 0.0000,  0.0000,  0.0000)
  11 Au     5.907170    1.705253    8.411592    ( 0.0000,  0.0000,  0.0000)
  12 Au     1.476793    4.263133    8.411592    ( 0.0000,  0.0000,  0.0000)
  13 Au     4.430378    4.263133    8.411592    ( 0.0000,  0.0000,  0.0000)
  14 Au     7.383963    4.263133    8.411592    ( 0.0000,  0.0000,  0.0000)
  15 Au     2.953585    6.821012    8.411592    ( 0.0000,  0.0000,  0.0000)
  16 Au     5.907170    6.821012    8.411592    ( 0.0000,  0.0000,  0.0000)
  17 Au     8.860755    6.821012    8.411592    ( 0.0000,  0.0000,  0.0000)
  18 Au     0.000000    0.000000   10.823184    ( 0.0000,  0.0000,  0.0000)
  19 Au     2.953585    0.000000   10.823184    ( 0.0000,  0.0000,  0.0000)
  20 Au     5.907170    0.000000   10.823184    ( 0.0000,  0.0000,  0.0000)
  21 Au     1.476793    2.557880   10.823184    ( 0.0000,  0.0000,  0.0000)
  22 Au     4.430378    2.557880   10.823184    ( 0.0000,  0.0000,  0.0000)
  23 Au     7.383963    2.557880   10.823184    ( 0.0000,  0.0000,  0.0000)
  24 Au     2.953585    5.115759   10.823184    ( 0.0000,  0.0000,  0.0000)
  25 Au     5.907170    5.115759   10.823184    ( 0.0000,  0.0000,  0.0000)
  26 Au     8.860755    5.115759   10.823184    ( 0.0000,  0.0000,  0.0000)
  27 O      1.646662    0.950701   12.164272    ( 0.0000,  0.0000,  0.0000)

Unit cell:
           periodic     x           y           z      points  spacing
  1. axis:    yes    8.860755    0.000000    0.000000    45     0.1705
  2. axis:    yes    4.430378    7.673639    0.000000    45     0.1705
  3. axis:    no     0.000000    0.000000   16.823184    84     0.2003

  Lengths:   8.860755   8.860755  16.823184
  Angles:   90.000000  90.000000  60.000000

Effective grid spacing dv^(1/3) = 0.1888

     iter     time        total  log10-change:
                         energy  eigst   dens
iter:   1 11:55:59   -83.087532  -1.92
iter:   2 11:56:05   -82.984111  -3.42  -2.44
iter:   3 11:56:10   -82.870058  -3.15  -2.53
iter:   4 11:56:15   -82.846762c -3.03  -2.74
iter:   5 11:56:21   -82.829235c -3.55  -2.87
iter:   6 11:56:26   -82.820245c -3.91  -3.04
iter:   7 11:56:31   -82.820085c -4.65  -3.27
iter:   8 11:56:37   -82.819183c -5.09  -3.35
iter:   9 11:56:42   -82.819009c -4.87  -3.56
iter:  10 11:56:48   -82.818924c -5.92  -3.69
iter:  11 11:56:53   -82.818745c -5.19  -3.74
iter:  12 11:56:58   -82.818760c -6.25  -4.08c
iter:  13 11:57:04   -82.818728c -6.85  -4.08c
iter:  14 11:57:09   -82.818721c -6.63  -4.18c
iter:  15 11:57:14   -82.818715c -7.11  -4.28c
iter:  16 11:57:20   -82.818707c -7.13  -4.39c
iter:  17 11:57:25   -82.818698c -6.89  -4.54c
iter:  18 11:57:31   -82.818700c -7.64c -4.63c

Converged after 18 iterations.

Dipole moment: (-0.529026, -0.305433, -0.258676) |e|*Ang

Energy contributions relative to reference atoms: (reference = -13950194.172252)

Kinetic:       -297.258982
Potential:     +240.187686
External:        +0.000000
XC:             -28.686786
Entropy (-ST):   -0.259264
Local:           +3.069015
--------------------------
Free energy:    -82.948332
Extrapolated:   -82.818700

Showing only first 2 kpts
 Kpt  Band  Eigenvalues  Occupancy
  0   149     -0.17684    1.99984
  0   150      0.13487    1.99632
  0   151      0.26147    1.98700
  0   152      0.37757    1.95908

  1   149     -0.49608    1.99999
  1   150     -0.30670    1.99996
  1   151      0.17798    1.99434
  1   152      0.20527    1.99257


Fermi level: 0.76442

No gap

Forces in eV/Ang:
  0 Au   -0.01099   -0.00635   -0.08913
  1 Au   -0.01528    0.00344   -0.06047
  2 Au    0.01945   -0.01672   -0.05529
  3 Au   -0.00466   -0.01495   -0.06047
  4 Au   -0.01368   -0.00790    0.00163
  5 Au    0.00984   -0.01373   -0.06455
  6 Au   -0.00476    0.02521   -0.05529
  7 Au   -0.00697    0.01539   -0.06455
  8 Au    0.00021    0.00012    0.10521
  9 Au   -0.02734    0.02058   -0.01939
 10 Au    0.04090    0.02361   -0.05983
 11 Au   -0.01344   -0.01602    0.02174
 12 Au    0.00499   -0.25487    0.21349
 13 Au   -0.02060   -0.00363    0.02174
 14 Au    0.01266    0.00731    0.02751
 15 Au    0.17001    0.09816    0.16074
 16 Au    0.00416   -0.03396   -0.01939
 17 Au   -0.21823    0.13176    0.21349
 18 Au   -0.65059   -0.37562    0.16826
 19 Au    1.17979   -0.78599   -0.20970
 20 Au    0.07632    0.00184   -0.03342
 21 Au   -0.09079    1.41472   -0.20970
 22 Au    0.29118    0.16812   -0.07466
 23 Au   -0.21756    0.10409   -0.04032
 24 Au    0.03975    0.06517   -0.03342
 25 Au   -0.01863   -0.24046   -0.04032
 26 Au   -0.00995   -0.00574   -0.07149
 27 O    -0.52046   -0.30049    0.38887

System changes: positions 

Initializing position-dependent things.

Density initialized from wave functions
                                              
                                              
                                              
                                              
                                              
                                              
                  Au     Au     Au            
                                              
           OAu     AAu    AAu    Au           
                                              
       Au     Au     AAu    Au                
        Au     Au     AAu    Au     Au        
                                              
                 Au     Au     Au             
                                              
           Au      Au     Au                  
                                              
                                              
                                              
                                              

Positions:
   0 Au     1.476793    0.852627    6.000000    ( 0.0000,  0.0000,  0.0000)
   1 Au     4.430378    0.852627    6.000000    ( 0.0000,  0.0000,  0.0000)
   2 Au     7.383963    0.852627    6.000000    ( 0.0000,  0.0000,  0.0000)
   3 Au     2.953585    3.410506    6.000000    ( 0.0000,  0.0000,  0.0000)
   4 Au     5.907170    3.410506    6.000000    ( 0.0000,  0.0000,  0.0000)
   5 Au     8.860755    3.410506    6.000000    ( 0.0000,  0.0000,  0.0000)
   6 Au     4.430378    5.968386    6.000000    ( 0.0000,  0.0000,  0.0000)
   7 Au     7.383963    5.968386    6.000000    ( 0.0000,  0.0000,  0.0000)
   8 Au    10.337548    5.968386    6.000000    ( 0.0000,  0.0000,  0.0000)
   9 Au    -0.000000    1.705253    8.411592    ( 0.0000,  0.0000,  0.0000)
  10 Au     2.953585    1.705253    8.411592    ( 0.0000,  0.0000,  0.0000)
  11 Au     5.907170    1.705253    8.411592    ( 0.0000,  0.0000,  0.0000)
  12 Au     1.476793    4.263133    8.411592    ( 0.0000,  0.0000,  0.0000)
  13 Au     4.430378    4.263133    8.411592    ( 0.0000,  0.0000,  0.0000)
  14 Au     7.383963    4.263133    8.411592    ( 0.0000,  0.0000,  0.0000)
  15 Au     2.953585    6.821012    8.411592    ( 0.0000,  0.0000,  0.0000)
  16 Au     5.907170    6.821012    8.411592    ( 0.0000,  0.0000,  0.0000)
  17 Au     8.860755    6.821012    8.411592    ( 0.0000,  0.0000,  0.0000)
  18 Au     0.000000    0.000000   10.823184    ( 0.0000,  0.0000,  0.0000)
  19 Au     2.953585    0.000000   10.823184    ( 0.0000,  0.0000,  0.0000)
  20 Au     5.907170    0.000000   10.823184    ( 0.0000,  0.0000,  0.0000)
  21 Au     1.476793    2.557880   10.823184    ( 0.0000,  0.0000,  0.0000)
  22 Au     4.430378    2.557880   10.823184    ( 0.0000,  0.0000,  0.0000)
  23 Au     7.383963    2.557880   10.823184    ( 0.0000,  0.0000,  0.0000)
  24 Au     2.953585    5.115759   10.823184    ( 0.0000,  0.0000,  0.0000)
  25 Au     5.907170    5.115759   10.823184    ( 0.0000,  0.0000,  0.0000)
  26 Au     8.860755    5.115759   10.823184    ( 0.0000,  0.0000,  0.0000)
  27 O      1.482442    0.855888   12.174247    ( 0.0000,  0.0000,  0.0000)

Unit cell:
           periodic     x           y           z      points  spacing
  1. axis:    yes    8.860755    0.000000    0.000000    45     0.1705
  2. axis:    yes    4.430378    7.673639    0.000000    45     0.1705
  3. axis:    no     0.000000    0.000000   16.823184    84     0.2003

  Lengths:   8.860755   8.860755  16.823184
  Angles:   90.000000  90.000000  60.000000

Effective grid spacing dv^(1/3) = 0.1888

     iter     time        total  log10-change:
                         energy  eigst   dens
iter:   1 11:57:38   -83.072894  -2.17
iter:   2 11:57:43   -82.991993  -3.64  -2.52
iter:   3 11:57:49   -82.928312c -3.57  -2.66
iter:   4 11:57:54   -82.904994c -3.06  -2.82
iter:   5 11:57:59   -82.895684c -3.68  -2.97
iter:   6 11:58:05   -82.885289c -4.02  -3.17
iter:   7 11:58:10   -82.883865c -4.61  -3.32
iter:   8 11:58:16   -82.883785c -5.50  -3.60
iter:   9 11:58:21   -82.883687c -5.45  -3.66
iter:  10 11:58:26   -82.883668c -5.76  -3.80
iter:  11 11:58:32   -82.883598c -6.16  -3.91
iter:  12 11:58:37   -82.883579c -5.99  -4.06c
iter:  13 11:58:42   -82.883592c -6.51  -4.27c
iter:  14 11:58:48   -82.883591c -7.20  -4.36c
iter:  15 11:58:53   -82.883581c -7.46c -4.45c

Converged after 15 iterations.

Dipole moment: (-1.126629, -0.650460, -0.266179) |e|*Ang

Energy contributions relative to reference atoms: (reference = -13950194.172252)

Kinetic:       -298.784828
Potential:     +241.481641
External:        +0.000000
XC:             -28.510552
Entropy (-ST):   -0.261972
Local:           +3.061144
--------------------------
Free energy:    -83.014567
Extrapolated:   -82.883581

Showing only first 2 kpts
 Kpt  Band  Eigenvalues  Occupancy
  0   149     -0.17595    1.99982
  0   150      0.09963    1.99723
  0   151      0.28454    1.98252
  0   152      0.38807    1.95154

  1   149     -0.49988    1.99999
  1   150     -0.29186    1.99994
  1   151      0.16680    1.99458
  1   152      0.17447    1.99415


Fermi level: 0.75764

No gap

Forces in eV/Ang:
  0 Au    0.00002    0.00001   -0.09041
  1 Au   -0.02419    0.00819   -0.06200
  2 Au    0.01794   -0.02538   -0.05732
  3 Au   -0.00500   -0.02505   -0.06200
  4 Au   -0.00646   -0.00373    0.00321
  5 Au    0.00350   -0.00760   -0.06334
  6 Au   -0.01301    0.02823   -0.05732
  7 Au   -0.00483    0.00683   -0.06334
  8 Au    0.01274    0.00735    0.11349
  9 Au   -0.03072    0.02400   -0.02686
 10 Au    0.03314    0.01913   -0.04044
 11 Au   -0.00347   -0.01351    0.01934
 12 Au    0.00771   -0.24292    0.20012
 13 Au   -0.01343    0.00375    0.01934
 14 Au    0.01379    0.00796    0.02721
 15 Au    0.20141    0.11629    0.19966
 16 Au    0.00542   -0.03860   -0.02686
 17 Au   -0.20652    0.12813    0.20012
 18 Au   -0.92702   -0.53521    0.03605
 19 Au    0.92051   -0.53769    0.04293
 20 Au    0.01384    0.00573   -0.04639
 21 Au   -0.00539    1.06603    0.04293
 22 Au    0.24004    0.13858   -0.05511
 23 Au   -0.23040    0.13298   -0.05030
 24 Au    0.01188    0.00912   -0.04639
 25 Au   -0.00003   -0.26602   -0.05030
 26 Au   -0.00638   -0.00368   -0.04297
 27 O    -0.01722   -0.00994   -0.01678

System changes: positions 

Initializing position-dependent things.

Density initialized from wave functions
                                              
                                              
                                              
                                              
                                              
                                              
                  Au     Au     Au            
                                              
           OAu     AAu    AAu    Au           
                                              
       Au     Au     AAu    Au                
        Au     Au     AAu    Au     Au        
                                              
                 Au     Au     Au             
                                              
           Au      Au     Au                  
                                              
                                              
                                              
                                              

Positions:
   0 Au     1.476793    0.852627    6.000000    ( 0.0000,  0.0000,  0.0000)
   1 Au     4.430378    0.852627    6.000000    ( 0.0000,  0.0000,  0.0000)
   2 Au     7.383963    0.852627    6.000000    ( 0.0000,  0.0000,  0.0000)
   3 Au     2.953585    3.410506    6.000000    ( 0.0000,  0.0000,  0.0000)
   4 Au     5.907170    3.410506    6.000000    ( 0.0000,  0.0000,  0.0000)
   5 Au     8.860755    3.410506    6.000000    ( 0.0000,  0.0000,  0.0000)
   6 Au     4.430378    5.968386    6.000000    ( 0.0000,  0.0000,  0.0000)
   7 Au     7.383963    5.968386    6.000000    ( 0.0000,  0.0000,  0.0000)
   8 Au    10.337548    5.968386    6.000000    ( 0.0000,  0.0000,  0.0000)
   9 Au    -0.000000    1.705253    8.411592    ( 0.0000,  0.0000,  0.0000)
  10 Au     2.953585    1.705253    8.411592    ( 0.0000,  0.0000,  0.0000)
  11 Au     5.907170    1.705253    8.411592    ( 0.0000,  0.0000,  0.0000)
  12 Au     1.476793    4.263133    8.411592    ( 0.0000,  0.0000,  0.0000)
  13 Au     4.430378    4.263133    8.411592    ( 0.0000,  0.0000,  0.0000)
  14 Au     7.383963    4.263133    8.411592    ( 0.0000,  0.0000,  0.0000)
  15 Au     2.953585    6.821012    8.411592    ( 0.0000,  0.0000,  0.0000)
  16 Au     5.907170    6.821012    8.411592    ( 0.0000,  0.0000,  0.0000)
  17 Au     8.860755    6.821012    8.411592    ( 0.0000,  0.0000,  0.0000)
  18 Au     0.000000    0.000000   10.823184    ( 0.0000,  0.0000,  0.0000)
  19 Au     2.953585    0.000000   10.823184    ( 0.0000,  0.0000,  0.0000)
  20 Au     5.907170    0.000000   10.823184    ( 0.0000,  0.0000,  0.0000)
  21 Au     1.476793    2.557880   10.823184    ( 0.0000,  0.0000,  0.0000)
  22 Au     4.430378    2.557880   10.823184    ( 0.0000,  0.0000,  0.0000)
  23 Au     7.383963    2.557880   10.823184    ( 0.0000,  0.0000,  0.0000)
  24 Au     2.953585    5.115759   10.823184    ( 0.0000,  0.0000,  0.0000)
  25 Au     5.907170    5.115759   10.823184    ( 0.0000,  0.0000,  0.0000)
  26 Au     8.860755    5.115759   10.823184    ( 0.0000,  0.0000,  0.0000)
  27 O      1.480764    0.854919   12.173451    ( 0.0000,  0.0000,  0.0000)

Unit cell:
           periodic     x           y           z      points  spacing
  1. axis:    yes    8.860755    0.000000    0.000000    45     0.1705
  2. axis:    yes    4.430378    7.673639    0.000000    45     0.1705
  3. axis:    no     0.000000    0.000000   16.823184    84     0.2003

  Lengths:   8.860755   8.860755  16.823184
  Angles:   90.000000  90.000000  60.000000

Effective grid spacing dv^(1/3) = 0.1888

     iter     time        total  log10-change:
                         energy  eigst   dens
iter:   1 11:59:00   -82.883690  -5.38
iter:   2 11:59:06   -82.883640  -6.94  -4.00
iter:   3 11:59:11   -82.883602c -6.63  -4.19c
iter:   4 11:59:17   -82.883592c -6.10  -4.38c
iter:   5 11:59:22   -82.883597c -7.09  -4.85c
iter:   6 11:59:27   -82.883589c -7.74c -4.94c

Converged after 6 iterations.

Dipole moment: (-1.134228, -0.654847, -0.265633) |e|*Ang

Energy contributions relative to reference atoms: (reference = -13950194.172252)

Kinetic:       -298.741668
Potential:     +241.451320
External:        +0.000000
XC:             -28.518468
Entropy (-ST):   -0.262001
Local:           +3.056227
--------------------------
Free energy:    -83.014590
Extrapolated:   -82.883589

Showing only first 2 kpts
 Kpt  Band  Eigenvalues  Occupancy
  0   149     -0.17593    1.99982
  0   150      0.09955    1.99724
  0   151      0.28543    1.98239
  0   152      0.38843    1.95144

  1   149     -0.49962    1.99999
  1   150     -0.29150    1.99994
  1   151      0.16688    1.99459
  1   152      0.17474    1.99414


Fermi level: 0.75779

No gap

Forces in eV/Ang:
  0 Au    0.00203    0.00117   -0.08977
  1 Au   -0.02571    0.00865   -0.06044
  2 Au    0.01736   -0.02502   -0.05896
  3 Au   -0.00536   -0.02659   -0.06044
  4 Au   -0.00728   -0.00421    0.00316
  5 Au    0.00471   -0.00740   -0.06259
  6 Au   -0.01299    0.02755   -0.05896
  7 Au   -0.00405    0.00778   -0.06259
  8 Au    0.01218    0.00703    0.11333
  9 Au   -0.02945    0.02596   -0.02644
 10 Au    0.03389    0.01956   -0.04419
 11 Au   -0.00563   -0.01235    0.01908
 12 Au    0.00572   -0.24300    0.19870
 13 Au   -0.01351    0.00130    0.01908
 14 Au    0.01609    0.00929    0.02930
 15 Au    0.20120    0.11616    0.20313
 16 Au    0.00776   -0.03848   -0.02644
 17 Au   -0.20758    0.12645    0.19870
 18 Au   -0.93247   -0.53836    0.03388
 19 Au    0.92269   -0.54111    0.03836
 20 Au    0.01618    0.00438   -0.04655
 21 Au   -0.00727    1.06963    0.03836
 22 Au    0.23992    0.13852   -0.05457
 23 Au   -0.23070    0.13484   -0.05136
 24 Au    0.01188    0.01182   -0.04655
 25 Au    0.00143   -0.26721   -0.05136
 26 Au   -0.00786   -0.00454   -0.04410
 27 O    -0.01265   -0.00730   -0.01803

System changes: positions 

Initializing position-dependent things.

Density initialized from wave functions
                                              
                                              
                                              
                                              
                                              
                                              
                  Au     Au     Au            
                                              
           OAu     AAu    AAu    Au           
                                              
       Au     Au     AAu    Au                
        Au     Au     AAu    Au     Au        
                                              
                 Au     Au     Au             
                                              
           Au      Au     Au                  
                                              
                                              
                                              
                                              

Positions:
   0 Au     1.476793    0.852627    6.000000    ( 0.0000,  0.0000,  0.0000)
   1 Au     4.430378    0.852627    6.000000    ( 0.0000,  0.0000,  0.0000)
   2 Au     7.383963    0.852627    6.000000    ( 0.0000,  0.0000,  0.0000)
   3 Au     2.953585    3.410506    6.000000    ( 0.0000,  0.0000,  0.0000)
   4 Au     5.907170    3.410506    6.000000    ( 0.0000,  0.0000,  0.0000)
   5 Au     8.860755    3.410506    6.000000    ( 0.0000,  0.0000,  0.0000)
   6 Au     4.430378    5.968386    6.000000    ( 0.0000,  0.0000,  0.0000)
   7 Au     7.383963    5.968386    6.000000    ( 0.0000,  0.0000,  0.0000)
   8 Au    10.337548    5.968386    6.000000    ( 0.0000,  0.0000,  0.0000)
   9 Au    -0.000000    1.705253    8.411592    ( 0.0000,  0.0000,  0.0000)
  10 Au     2.953585    1.705253    8.411592    ( 0.0000,  0.0000,  0.0000)
  11 Au     5.907170    1.705253    8.411592    ( 0.0000,  0.0000,  0.0000)
  12 Au     1.476793    4.263133    8.411592    ( 0.0000,  0.0000,  0.0000)
  13 Au     4.430378    4.263133    8.411592    ( 0.0000,  0.0000,  0.0000)
  14 Au     7.383963    4.263133    8.411592    ( 0.0000,  0.0000,  0.0000)
  15 Au     2.953585    6.821012    8.411592    ( 0.0000,  0.0000,  0.0000)
  16 Au     5.907170    6.821012    8.411592    ( 0.0000,  0.0000,  0.0000)
  17 Au     8.860755    6.821012    8.411592    ( 0.0000,  0.0000,  0.0000)
  18 Au     0.000000    0.000000   10.823184    ( 0.0000,  0.0000,  0.0000)
  19 Au     2.953585    0.000000   10.823184    ( 0.0000,  0.0000,  0.0000)
  20 Au     5.907170    0.000000   10.823184    ( 0.0000,  0.0000,  0.0000)
  21 Au     1.476793    2.557880   10.823184    ( 0.0000,  0.0000,  0.0000)
  22 Au     4.430378    2.557880   10.823184    ( 0.0000,  0.0000,  0.0000)
  23 Au     7.383963    2.557880   10.823184    ( 0.0000,  0.0000,  0.0000)
  24 Au     2.953585    5.115759   10.823184    ( 0.0000,  0.0000,  0.0000)
  25 Au     5.907170    5.115759   10.823184    ( 0.0000,  0.0000,  0.0000)
  26 Au     8.860755    5.115759   10.823184    ( 0.0000,  0.0000,  0.0000)
  27 O      1.480206    0.854597   12.172985    ( 0.0000,  0.0000,  0.0000)

Unit cell:
           periodic     x           y           z      points  spacing
  1. axis:    yes    8.860755    0.000000    0.000000    45     0.1705
  2. axis:    yes    4.430378    7.673639    0.000000    45     0.1705
  3. axis:    no     0.000000    0.000000   16.823184    84     0.2003

  Lengths:   8.860755   8.860755  16.823184
  Angles:   90.000000  90.000000  60.000000

Effective grid spacing dv^(1/3) = 0.1888

     iter     time        total  log10-change:
                         energy  eigst   dens
iter:   1 11:59:35   -82.883575  -6.32
iter:   2 11:59:40   -82.883585  -7.48c -4.29c
iter:   3 11:59:45   -82.883590c -7.81c -4.67c

Converged after 3 iterations.

Dipole moment: (-1.136383, -0.656091, -0.265327) |e|*Ang

Energy contributions relative to reference atoms: (reference = -13950194.172252)

Kinetic:       -298.731775
Potential:     +241.443575
External:        +0.000000
XC:             -28.520171
Entropy (-ST):   -0.262022
Local:           +3.055792
--------------------------
Free energy:    -83.014600
Extrapolated:   -82.883590

Showing only first 2 kpts
 Kpt  Band  Eigenvalues  Occupancy
  0   149     -0.17605    1.99982
  0   150      0.09951    1.99724
  0   151      0.28578    1.98233
  0   152      0.38847    1.95144

  1   149     -0.49952    1.99999
  1   150     -0.29134    1.99994
  1   151      0.16686    1.99459
  1   152      0.17474    1.99415


Fermi level: 0.75781

No gap

Forces in eV/Ang:
  0 Au    0.00297    0.00172   -0.08990
  1 Au   -0.02585    0.00894   -0.05874
  2 Au    0.01658   -0.02495   -0.06224
  3 Au   -0.00518   -0.02686   -0.05874
  4 Au   -0.00837   -0.00483    0.00281
  5 Au    0.00562   -0.00737   -0.06222
  6 Au   -0.01331    0.02683   -0.06224
  7 Au   -0.00357    0.00855   -0.06222
  8 Au    0.01204    0.00695    0.11294
  9 Au   -0.02622    0.02905   -0.02528
 10 Au    0.03587    0.02071   -0.04449
 11 Au   -0.01081   -0.01067    0.01931
 12 Au    0.00461   -0.24417    0.19978
 13 Au   -0.01464   -0.00403    0.01931
 14 Au    0.01824    0.01053    0.03112
 15 Au    0.19835    0.11452    0.20194
 16 Au    0.01205   -0.03724   -0.02528
 17 Au   -0.20916    0.12608    0.19978
 18 Au   -0.93044   -0.53719    0.03882
 19 Au    0.91989   -0.54414    0.03456
 20 Au    0.01477    0.00411   -0.04627
 21 Au   -0.01130    1.06872    0.03456
 22 Au    0.24225    0.13986   -0.05763
 23 Au   -0.22930    0.13595   -0.04982
 24 Au    0.01095    0.01074   -0.04627
 25 Au    0.00309   -0.26656   -0.04982
 26 Au   -0.00844   -0.00487   -0.04504
 27 O    -0.02029   -0.01171   -0.02349

System changes: positions 

Initializing position-dependent things.

Density initialized from wave functions
                                              
                                              
                                              
                                              
                                              
                                              
                  Au     Au     Au            
                                              
           OAu     AAu    AAu    Au           
                                              
       Au     Au     AAu    Au                
        Au     Au     AAu    Au     Au        
                                              
                 Au     Au     Au             
                                              
           Au      Au     Au                  
                                              
                                              
                                              
                                              

Positions:
   0 Au     1.476793    0.852627    6.000000    ( 0.0000,  0.0000,  0.0000)
   1 Au     4.430378    0.852627    6.000000    ( 0.0000,  0.0000,  0.0000)
   2 Au     7.383963    0.852627    6.000000    ( 0.0000,  0.0000,  0.0000)
   3 Au     2.953585    3.410506    6.000000    ( 0.0000,  0.0000,  0.0000)
   4 Au     5.907170    3.410506    6.000000    ( 0.0000,  0.0000,  0.0000)
   5 Au     8.860755    3.410506    6.000000    ( 0.0000,  0.0000,  0.0000)
   6 Au     4.430378    5.968386    6.000000    ( 0.0000,  0.0000,  0.0000)
   7 Au     7.383963    5.968386    6.000000    ( 0.0000,  0.0000,  0.0000)
   8 Au    10.337548    5.968386    6.000000    ( 0.0000,  0.0000,  0.0000)
   9 Au    -0.000000    1.705253    8.411592    ( 0.0000,  0.0000,  0.0000)
  10 Au     2.953585    1.705253    8.411592    ( 0.0000,  0.0000,  0.0000)
  11 Au     5.907170    1.705253    8.411592    ( 0.0000,  0.0000,  0.0000)
  12 Au     1.476793    4.263133    8.411592    ( 0.0000,  0.0000,  0.0000)
  13 Au     4.430378    4.263133    8.411592    ( 0.0000,  0.0000,  0.0000)
  14 Au     7.383963    4.263133    8.411592    ( 0.0000,  0.0000,  0.0000)
  15 Au     2.953585    6.821012    8.411592    ( 0.0000,  0.0000,  0.0000)
  16 Au     5.907170    6.821012    8.411592    ( 0.0000,  0.0000,  0.0000)
  17 Au     8.860755    6.821012    8.411592    ( 0.0000,  0.0000,  0.0000)
  18 Au     0.000000    0.000000   10.823184    ( 0.0000,  0.0000,  0.0000)
  19 Au     2.953585    0.000000   10.823184    ( 0.0000,  0.0000,  0.0000)
  20 Au     5.907170    0.000000   10.823184    ( 0.0000,  0.0000,  0.0000)
  21 Au     1.476793    2.557880   10.823184    ( 0.0000,  0.0000,  0.0000)
  22 Au     4.430378    2.557880   10.823184    ( 0.0000,  0.0000,  0.0000)
  23 Au     7.383963    2.557880   10.823184    ( 0.0000,  0.0000,  0.0000)
  24 Au     2.953585    5.115759   10.823184    ( 0.0000,  0.0000,  0.0000)
  25 Au     5.907170    5.115759   10.823184    ( 0.0000,  0.0000,  0.0000)
  26 Au     8.860755    5.115759   10.823184    ( 0.0000,  0.0000,  0.0000)
  27 O      1.479509    0.854195   12.172535    ( 0.0000,  0.0000,  0.0000)

Unit cell:
           periodic     x           y           z      points  spacing
  1. axis:    yes    8.860755    0.000000    0.000000    45     0.1705
  2. axis:    yes    4.430378    7.673639    0.000000    45     0.1705
  3. axis:    no     0.000000    0.000000   16.823184    84     0.2003

  Lengths:   8.860755   8.860755  16.823184
  Angles:   90.000000  90.000000  60.000000

Effective grid spacing dv^(1/3) = 0.1888

     iter     time        total  log10-change:
                         energy  eigst   dens
iter:   1 11:59:53   -82.883638  -5.85
iter:   2 11:59:58   -82.883632  -7.46c -4.25c
iter:   3 12:00:03   -82.883619c -7.17  -4.44c
iter:   4 12:00:09   -82.883600c -6.86  -4.67c
iter:   5 12:00:14   -82.883594c -7.51c -5.11c

Converged after 5 iterations.

Dipole moment: (-1.140133, -0.658256, -0.265172) |e|*Ang

Energy contributions relative to reference atoms: (reference = -13950194.172252)

Kinetic:       -298.698350
Potential:     +241.414495
External:        +0.000000
XC:             -28.524763
Entropy (-ST):   -0.262008
Local:           +3.056027
--------------------------
Free energy:    -83.014598
Extrapolated:   -82.883594

Showing only first 2 kpts
 Kpt  Band  Eigenvalues  Occupancy
  0   149     -0.17581    1.99982
  0   150      0.09951    1.99724
  0   151      0.28598    1.98232
  0   152      0.38872    1.95138

  1   149     -0.49938    1.99999
  1   150     -0.29119    1.99994
  1   151      0.16690    1.99459
  1   152      0.17501    1.99414


Fermi level: 0.75794

No gap

Forces in eV/Ang:
  0 Au    0.00288    0.00166   -0.08963
  1 Au   -0.02604    0.00880   -0.05974
  2 Au    0.01693   -0.02497   -0.05992
  3 Au   -0.00540   -0.02695   -0.05974
  4 Au   -0.00771   -0.00445    0.00318
  5 Au    0.00514   -0.00721   -0.06231
  6 Au   -0.01316    0.02715   -0.05992
  7 Au   -0.00367    0.00805   -0.06231
  8 Au    0.01201    0.00693    0.11335
  9 Au   -0.02839    0.02738   -0.02644
 10 Au    0.03480    0.02009   -0.04425
 11 Au   -0.00763   -0.01174    0.01930
 12 Au    0.00534   -0.24346    0.19906
 13 Au   -0.01399   -0.00074    0.01930
 14 Au    0.01694    0.00978    0.03005
 15 Au    0.20033    0.11566    0.20361
 16 Au    0.00952   -0.03827   -0.02644
 17 Au   -0.20817    0.12635    0.19906
 18 Au   -0.93946   -0.54240    0.03052
 19 Au    0.92557   -0.54254    0.03615
 20 Au    0.01477    0.00430   -0.04634
 21 Au   -0.00706    1.07284    0.03615
 22 Au    0.23991    0.13851   -0.05494
 23 Au   -0.23101    0.13600   -0.05095
 24 Au    0.01111    0.01064   -0.04634
 25 Au    0.00228   -0.26806   -0.05095
 26 Au   -0.00790   -0.00456   -0.04404
 27 O    -0.00695   -0.00401   -0.00739

System changes: positions 

Initializing position-dependent things.

Density initialized from wave functions
                                              
                                              
                                              
                                              
                                              
                                              
                  Au     Au     Au            
                                              
           OAu     AAu    AAu    Au           
                                              
       Au     Au     AAu    Au                
        Au     Au     AAu    Au     Au        
                                              
                 Au     Au     Au             
                                              
           Au      Au     Au                  
                                              
                                              
                                              
                                              

Positions:
   0 Au     1.476793    0.852627    6.000000    ( 0.0000,  0.0000,  0.0000)
   1 Au     4.430378    0.852627    6.000000    ( 0.0000,  0.0000,  0.0000)
   2 Au     7.383963    0.852627    6.000000    ( 0.0000,  0.0000,  0.0000)
   3 Au     2.953585    3.410506    6.000000    ( 0.0000,  0.0000,  0.0000)
   4 Au     5.907170    3.410506    6.000000    ( 0.0000,  0.0000,  0.0000)
   5 Au     8.860755    3.410506    6.000000    ( 0.0000,  0.0000,  0.0000)
   6 Au     4.430378    5.968386    6.000000    ( 0.0000,  0.0000,  0.0000)
   7 Au     7.383963    5.968386    6.000000    ( 0.0000,  0.0000,  0.0000)
   8 Au    10.337548    5.968386    6.000000    ( 0.0000,  0.0000,  0.0000)
   9 Au    -0.000000    1.705253    8.411592    ( 0.0000,  0.0000,  0.0000)
  10 Au     2.953585    1.705253    8.411592    ( 0.0000,  0.0000,  0.0000)
  11 Au     5.907170    1.705253    8.411592    ( 0.0000,  0.0000,  0.0000)
  12 Au     1.476793    4.263133    8.411592    ( 0.0000,  0.0000,  0.0000)
  13 Au     4.430378    4.263133    8.411592    ( 0.0000,  0.0000,  0.0000)
  14 Au     7.383963    4.263133    8.411592    ( 0.0000,  0.0000,  0.0000)
  15 Au     2.953585    6.821012    8.411592    ( 0.0000,  0.0000,  0.0000)
  16 Au     5.907170    6.821012    8.411592    ( 0.0000,  0.0000,  0.0000)
  17 Au     8.860755    6.821012    8.411592    ( 0.0000,  0.0000,  0.0000)
  18 Au     0.000000    0.000000   10.823184    ( 0.0000,  0.0000,  0.0000)
  19 Au     2.953585    0.000000   10.823184    ( 0.0000,  0.0000,  0.0000)
  20 Au     5.907170    0.000000   10.823184    ( 0.0000,  0.0000,  0.0000)
  21 Au     1.476793    2.557880   10.823184    ( 0.0000,  0.0000,  0.0000)
  22 Au     4.430378    2.557880   10.823184    ( 0.0000,  0.0000,  0.0000)
  23 Au     7.383963    2.557880   10.823184    ( 0.0000,  0.0000,  0.0000)
  24 Au     2.953585    5.115759   10.823184    ( 0.0000,  0.0000,  0.0000)
  25 Au     5.907170    5.115759   10.823184    ( 0.0000,  0.0000,  0.0000)
  26 Au     8.860755    5.115759   10.823184    ( 0.0000,  0.0000,  0.0000)
  27 O      1.479298    0.854073   12.172431    ( 0.0000,  0.0000,  0.0000)

Unit cell:
           periodic     x           y           z      points  spacing
  1. axis:    yes    8.860755    0.000000    0.000000    45     0.1705
  2. axis:    yes    4.430378    7.673639    0.000000    45     0.1705
  3. axis:    no     0.000000    0.000000   16.823184    84     0.2003

  Lengths:   8.860755   8.860755  16.823184
  Angles:   90.000000  90.000000  60.000000

Effective grid spacing dv^(1/3) = 0.1888

     iter     time        total  log10-change:
                         energy  eigst   dens
iter:   1 12:00:22   -82.883583  -7.23
iter:   2 12:00:27   -82.883591  -8.46c -4.75c
iter:   3 12:00:32   -82.883594c -8.30c -4.97c

Converged after 3 iterations.

Dipole moment: (-1.141652, -0.659133, -0.265013) |e|*Ang

Energy contributions relative to reference atoms: (reference = -13950194.172252)

Kinetic:       -298.697043
Potential:     +241.413891
External:        +0.000000
XC:             -28.524762
Entropy (-ST):   -0.262007
Local:           +3.055324
--------------------------
Free energy:    -83.014598
Extrapolated:   -82.883594

Showing only first 2 kpts
 Kpt  Band  Eigenvalues  Occupancy
  0   149     -0.17581    1.99982
  0   150      0.09949    1.99724
  0   151      0.28606    1.98231
  0   152      0.38881    1.95134

  1   149     -0.49938    1.99999
  1   150     -0.29123    1.99994
  1   151      0.16696    1.99459
  1   152      0.17502    1.99414


Fermi level: 0.75794

No gap

Forces in eV/Ang:
  0 Au    0.00116    0.00067   -0.08974
  1 Au   -0.02507    0.00863   -0.05997
  2 Au    0.01762   -0.02555   -0.05965
  3 Au   -0.00506   -0.02603   -0.05997
  4 Au   -0.00722   -0.00417    0.00312
  5 Au    0.00436   -0.00785   -0.06258
  6 Au   -0.01332    0.02803   -0.05965
  7 Au   -0.00462    0.00770   -0.06258
  8 Au    0.01313    0.00758    0.11327
  9 Au   -0.02902    0.02608   -0.02592
 10 Au    0.03404    0.01965   -0.04367
 11 Au   -0.00607   -0.01197    0.01921
 12 Au    0.00550   -0.24280    0.19906
 13 Au   -0.01340    0.00073    0.01921
 14 Au    0.01626    0.00939    0.02982
 15 Au    0.20130    0.11622    0.20293
 16 Au    0.00807   -0.03817   -0.02592
 17 Au   -0.20752    0.12616    0.19906
 18 Au   -0.93976   -0.54257    0.02937
 19 Au    0.92325   -0.54315    0.03572
 20 Au    0.01599    0.00426   -0.04680
 21 Au   -0.00876    1.07113    0.03572
 22 Au    0.24081    0.13903   -0.05575
 23 Au   -0.22990    0.13490   -0.05095
 24 Au    0.01168    0.01171   -0.04680
 25 Au    0.00188   -0.26655   -0.05095
 26 Au   -0.00810   -0.00468   -0.04427
 27 O    -0.00116   -0.00067   -0.00461

Timing:                                      incl.     excl.
-------------------------------------------------------------------
Density initialized from wave functions:     5.135     4.857   0.6% |
 Symmetrize density:                         0.278     0.278   0.0% |
Forces:                                     16.530    16.530   2.0% ||
Hamiltonian:                                 4.047     0.051   0.0% |
 Atomic:                                     1.855     0.935   0.1% |
  XC Correction:                             0.920     0.920   0.1% |
 Calculate atomic Hamiltonians:              1.054     1.054   0.1% |
 Communicate:                                0.029     0.029   0.0% |
 Initialize Hamiltonian:                     0.000     0.000   0.0% |
 Poisson:                                    0.014     0.014   0.0% |
 XC 3D grid:                                 1.044     1.044   0.1% |
LCAO initialization:                         7.656     0.144   0.0% |
 LCAO eigensolver:                           0.450     0.001   0.0% |
  Calculate projections:                     0.003     0.003   0.0% |
  DenseAtomicCorrection:                     0.004     0.004   0.0% |
  Distribute overlap matrix:                 0.071     0.071   0.0% |
  Orbital Layouts:                           0.100     0.100   0.0% |
  Potential matrix:                          0.255     0.255   0.0% |
  Sum over cells:                            0.016     0.016   0.0% |
 LCAO to grid:                               6.828     6.828   0.8% |
 Set positions (LCAO WFS):                   0.233     0.083   0.0% |
  Basic WFS set positions:                   0.002     0.002   0.0% |
  Basis functions set positions:             0.000     0.000   0.0% |
  P tci:                                     0.091     0.091   0.0% |
  ST tci:                                    0.030     0.030   0.0% |
  mktci:                                     0.028     0.028   0.0% |
PWDescriptor:                                0.034     0.034   0.0% |
Redistribute:                                0.021     0.021   0.0% |
SCF-cycle:                                 800.272     5.693   0.7% |
 Davidson:                                 688.883   125.728  15.0% |-----|
  Apply H:                                  79.728    77.730   9.2% |---|
   HMM T:                                    1.998     1.998   0.2% |
  Subspace diag:                           117.843     0.062   0.0% |
   calc_h_matrix:                           91.284    12.263   1.5% ||
    Apply H:                                79.022    77.051   9.2% |---|
     HMM T:                                  1.971     1.971   0.2% |
   diagonalize:                              6.777     6.777   0.8% |
   rotate_psi:                              19.719    19.719   2.3% ||
  calc. matrices:                          234.615    75.314   9.0% |---|
   Apply H:                                159.301   155.301  18.5% |------|
    HMM T:                                   4.000     4.000   0.5% |
  diagonalize:                              92.408    92.408  11.0% |---|
  rotate_psi:                               38.562    38.562   4.6% |-|
 Density:                                   59.141     0.004   0.0% |
  Atomic density matrices:                   0.424     0.424   0.1% |
  Mix:                                      15.302    15.302   1.8% ||
  Multipole moments:                         0.026     0.026   0.0% |
  Pseudo density:                           43.385    40.211   4.8% |-|
   Symmetrize density:                       3.175     3.175   0.4% |
 Hamiltonian:                               42.497     0.502   0.1% |
  Atomic:                                   19.593     9.876   1.2% |
   XC Correction:                            9.717     9.717   1.2% |
  Calculate atomic Hamiltonians:            11.108    11.108   1.3% ||
  Communicate:                               0.150     0.150   0.0% |
  Poisson:                                   0.133     0.133   0.0% |
  XC 3D grid:                               11.011    11.011   1.3% ||
 Orthonormalize:                             4.059     0.007   0.0% |
  calc_s_matrix:                             0.507     0.507   0.1% |
  inverse-cholesky:                          0.210     0.210   0.0% |
  projections:                               2.415     2.415   0.3% |
  rotate_psi_s:                              0.920     0.920   0.1% |
Set symmetry:                                0.002     0.002   0.0% |
Other:                                       7.004     7.004   0.8% |
-------------------------------------------------------------------
Total:                                               840.699 100.0%

Memory usage: 783.61 MiB
Date: Thu Mar  2 12:00:35 2023
