
  ___ ___ ___ _ _ _  
 |   |   |_  | | | | 
 | | | | | . | | | | 
 |__ |  _|___|_____|  22.8.0
 |___|_|             

User:   gotols@vera07-3
Date:   Thu Mar  2 11:11:26 2023
Arch:   x86_64
Pid:    1667366
CWD:    /cephyr/users/gotols/Vera/TIF320-Computational-materials-and-molecular-physics-Assignments
Python: 3.10.4
gpaw:   /apps/Arch/software/GPAW/22.8.0-foss-2022a/lib/python3.10/site-packages/gpaw
_gpaw:  /apps/Arch/software/GPAW/22.8.0-foss-2022a/lib/python3.10/site-packages/
        _gpaw.cpython-310-x86_64-linux-gnu.so
ase:    /apps/Arch/software/ASE/3.22.1-foss-2022a/lib/python3.10/site-packages/ase (version 3.22.1)
numpy:  /apps/Arch/software/SciPy-bundle/2022.05-foss-2022a/lib/python3.10/site-packages/numpy (version 1.22.3)
scipy:  /apps/Arch/software/SciPy-bundle/2022.05-foss-2022a/lib/python3.10/site-packages/scipy (version 1.8.1)
libxc:  5.2.3
units:  Angstrom and eV
cores: 16
OpenMP: False
OMP_NUM_THREADS: 1

Input parameters:
  kpts: [4 4 1]
  mode: {ecut: 450.00000000000006,
         name: pw}
  xc: PBE

System changes: positions, numbers, cell, pbc, initial_charges, initial_magmoms 

Initialize ...

species:
  Au:
    name: Gold
    id: b12133f335f6ca0d89c4b1ccaa844e9a
    Z: 79.0
    valence: 11
    core: 68
    charge: 0.0
    file: /apps/Common/software/GPAW-setups/0.9.20000/Au.PBE.gz
    compensation charges: {type: gauss,
                           rc: 0.42,
                           lmax: 2}
    cutoffs: {filter: 2.33,
              core: 2.81}
    valence states:
      #              energy  rcut
      - 6s(1.00)    -5.728   1.323
      - 6p(0.00)    -0.775   1.323
      - 5d(10.00)    -6.891   1.323
      -  s          21.484   1.323
      -  p          26.436   1.323
      -  d          20.321   1.323
  
    # Using partial waves for Au as LCAO basis

  O:
    name: Oxygen
    id: 32ecd46bf208036f09c70b0ec9a88b78
    Z: 8.0
    valence: 6
    core: 2
    charge: 0.0
    file: /apps/Common/software/GPAW-setups/0.9.20000/O.PBE.gz
    compensation charges: {type: gauss,
                           rc: 0.21,
                           lmax: 2}
    cutoffs: {filter: 1.17,
              core: 0.83}
    valence states:
      #              energy  rcut
      - 2s(2.00)   -23.961   0.688
      - 2p(4.00)    -9.029   0.598
      -  s           3.251   0.688
      -  p          18.182   0.598
      -  d           0.000   0.619
  
    # Using partial waves for O as LCAO basis

Reference energy: -13950194.172252  # eV

Spin-paired calculation

Convergence criteria:
 Maximum [total energy] change in last 3 cyles: 0.0005 eV / electron
 Maximum integral of absolute [dens]ity change: 0.0001 electrons / valence electron
 Maximum integral of absolute [eigenst]ate change: 4e-08 eV^2 / valence electron
 Maximum number of scf [iter]ations: 333
 (Square brackets indicate name in SCF output, whereas a 'c' in
 the SCF output indicates the quantity has converged.)

Symmetries present (total): 6

  ( 1  0  0)  ( 1 -1  0)  ( 0  1  0)  ( 0 -1  0)  (-1  1  0)  (-1  0  0)
  ( 0  1  0)  ( 0 -1  0)  ( 1  0  0)  ( 1 -1  0)  (-1  0  0)  (-1  1  0)
  ( 0  0  1)  ( 0  0  1)  ( 0  0  1)  ( 0  0  1)  ( 0  0  1)  ( 0  0  1)
Note: your k-points are not as symmetric as your crystal!

16 k-points: 4 x 4 x 1 Monkhorst-Pack grid
6 k-points in the irreducible part of the Brillouin zone
       k-points in crystal coordinates                weights
   0:     0.12500000   -0.12500000    0.00000000          2/16
   1:     0.12500000    0.12500000    0.00000000          2/16
   2:     0.37500000   -0.37500000    0.00000000          2/16
   3:     0.37500000   -0.12500000    0.00000000          4/16
   4:     0.37500000    0.12500000    0.00000000          4/16
   5:     0.37500000    0.37500000    0.00000000          2/16

Wave functions: Plane wave expansion
  Cutoff energy: 450.000 eV
  Number of coefficients (min, max): 24769, 24813
  Pulay-stress correction: 0.000000 eV/Ang^3 (de/decut=0.000000)
  Using FFTW library
  ScaLapack parameters: grid=1x1, blocksize=None
  Wavefunction extrapolation:
    Improved wavefunction reuse through dual PAW basis 

Occupation numbers: Fermi-Dirac:
  width: 0.1000  # eV
 

Eigensolver
   Davidson(niter=2) 

Densities:
  Coarse grid: 45*45*84 grid
  Fine grid: 90*90*168 grid
  Total Charge: 0.000000 

Density mixing:
  Method: separate
  Backend: pulay
  Linear mixing parameter: 0.05
  old densities: 5
  Damping of long wavelength oscillations: 50 

Hamiltonian:
  XC and Coulomb potentials evaluated on a 90*90*168 grid
  Using the PBE Exchange-Correlation functional
  External potential:
    NoExternalPotential
 

XC parameters: PBE with 2 nearest neighbor stencil

Memory estimate:
  Process memory now: 294.38 MiB
  Calculator: 310.60 MiB
    Density: 10.04 MiB
      Arrays: 4.23 MiB
      Localized functions: 4.11 MiB
      Mixer: 1.70 MiB
    Hamiltonian: 2.87 MiB
      Arrays: 2.77 MiB
      XC: 0.00 MiB
      Poisson: 0.00 MiB
      vbar: 0.10 MiB
    Wavefunctions: 297.70 MiB
      Arrays psit_nG: 211.27 MiB
      Eigensolver: 77.60 MiB
      Projections: 0.53 MiB
      Projectors: 1.42 MiB
      PW-descriptor: 6.88 MiB

Total number of cores used: 16
Parallelization over k-points: 2
Domain decomposition: 2 x 2 x 2

Number of atoms: 28
Number of atomic orbitals: 247
Number of bands in calculation: 186
Number of valence electrons: 303
Bands to converge: occupied

... initialized

Initializing position-dependent things.

Density initialized from atomic densities
Creating initial wave functions:
  186 bands from LCAO basis set

                                              
                                              
                                              
                                              
                                              
                                              
                                              
                  Au     Au     Au            
       O                                      
            Au     AAu    AAu    Au           
                                              
       Au     Au     AAu    Au                
        Au     Au     AAu    Au     Au        
                                              
                 Au     Au     Au             
                                              
           Au      Au     Au                  
                                              
                                              
                                              
                                              

Positions:
   0 Au     1.476793    0.852627    6.000000    ( 0.0000,  0.0000,  0.0000)
   1 Au     4.430378    0.852627    6.000000    ( 0.0000,  0.0000,  0.0000)
   2 Au     7.383963    0.852627    6.000000    ( 0.0000,  0.0000,  0.0000)
   3 Au     2.953585    3.410506    6.000000    ( 0.0000,  0.0000,  0.0000)
   4 Au     5.907170    3.410506    6.000000    ( 0.0000,  0.0000,  0.0000)
   5 Au     8.860755    3.410506    6.000000    ( 0.0000,  0.0000,  0.0000)
   6 Au     4.430378    5.968386    6.000000    ( 0.0000,  0.0000,  0.0000)
   7 Au     7.383963    5.968386    6.000000    ( 0.0000,  0.0000,  0.0000)
   8 Au    10.337548    5.968386    6.000000    ( 0.0000,  0.0000,  0.0000)
   9 Au    -0.000000    1.705253    8.411592    ( 0.0000,  0.0000,  0.0000)
  10 Au     2.953585    1.705253    8.411592    ( 0.0000,  0.0000,  0.0000)
  11 Au     5.907170    1.705253    8.411592    ( 0.0000,  0.0000,  0.0000)
  12 Au     1.476793    4.263133    8.411592    ( 0.0000,  0.0000,  0.0000)
  13 Au     4.430378    4.263133    8.411592    ( 0.0000,  0.0000,  0.0000)
  14 Au     7.383963    4.263133    8.411592    ( 0.0000,  0.0000,  0.0000)
  15 Au     2.953585    6.821012    8.411592    ( 0.0000,  0.0000,  0.0000)
  16 Au     5.907170    6.821012    8.411592    ( 0.0000,  0.0000,  0.0000)
  17 Au     8.860755    6.821012    8.411592    ( 0.0000,  0.0000,  0.0000)
  18 Au     0.000000    0.000000   10.823184    ( 0.0000,  0.0000,  0.0000)
  19 Au     2.953585    0.000000   10.823184    ( 0.0000,  0.0000,  0.0000)
  20 Au     5.907170    0.000000   10.823184    ( 0.0000,  0.0000,  0.0000)
  21 Au     1.476793    2.557880   10.823184    ( 0.0000,  0.0000,  0.0000)
  22 Au     4.430378    2.557880   10.823184    ( 0.0000,  0.0000,  0.0000)
  23 Au     7.383963    2.557880   10.823184    ( 0.0000,  0.0000,  0.0000)
  24 Au     2.953585    5.115759   10.823184    ( 0.0000,  0.0000,  0.0000)
  25 Au     5.907170    5.115759   10.823184    ( 0.0000,  0.0000,  0.0000)
  26 Au     8.860755    5.115759   10.823184    ( 0.0000,  0.0000,  0.0000)
  27 O      0.000000    0.000000   12.823184    ( 0.0000,  0.0000,  0.0000)

Unit cell:
           periodic     x           y           z      points  spacing
  1. axis:    yes    8.860755    0.000000    0.000000    45     0.1705
  2. axis:    yes    4.430378    7.673639    0.000000    45     0.1705
  3. axis:    no     0.000000    0.000000   16.823184    84     0.2003

  Lengths:   8.860755   8.860755  16.823184
  Angles:   90.000000  90.000000  60.000000

Effective grid spacing dv^(1/3) = 0.1888

     iter     time        total  log10-change:
                         energy  eigst   dens
iter:   1 11:11:42   -93.215010
iter:   2 11:11:47   -89.660877  -1.77  -1.32
iter:   3 11:11:53   -86.143237  -1.62  -1.35
iter:   4 11:11:58   -85.920071  -1.98  -1.45
iter:   5 11:12:03   -82.904715  -1.88  -1.45
iter:   6 11:12:09   -82.205216  -1.76  -1.69
iter:   7 11:12:14   -82.169041  -3.27  -2.00
iter:   8 11:12:20   -81.960940  -2.85  -2.01
iter:   9 11:12:25   -81.901577  -3.00  -2.15
iter:  10 11:12:30   -81.859439c -3.49  -2.42
iter:  11 11:12:36   -81.791570c -3.90  -2.42
iter:  12 11:12:41   -81.764169c -3.80  -2.60
iter:  13 11:12:46   -81.749771c -3.86  -2.86
iter:  14 11:12:52   -81.746485c -4.61  -3.13
iter:  15 11:12:57   -81.746316c -5.36  -3.26
iter:  16 11:13:03   -81.744911c -5.17  -3.28
iter:  17 11:13:08   -81.746112c -5.22  -3.41
iter:  18 11:13:14   -81.745932c -6.12  -3.59
iter:  19 11:13:19   -81.745674c -5.66  -3.61
iter:  20 11:13:24   -81.745492c -6.00  -3.77
iter:  21 11:13:30   -81.745514c -6.49  -3.84
iter:  22 11:13:35   -81.745639c -6.27  -3.92
iter:  23 11:13:41   -81.745506c -6.53  -4.14c
iter:  24 11:13:46   -81.745549c -7.67c -4.47c

Converged after 24 iterations.

Dipole moment: (-0.102846, -0.059378, -0.664073) |e|*Ang

Energy contributions relative to reference atoms: (reference = -13950194.172252)

Kinetic:       -311.131709
Potential:     +252.410707
External:        +0.000000
XC:             -25.934947
Entropy (-ST):   -0.330684
Local:           +3.075741
--------------------------
Free energy:    -81.910891
Extrapolated:   -81.745549

Showing only first 2 kpts
 Kpt  Band  Eigenvalues  Occupancy
  0   149     -0.11097    1.99847
  0   150      0.09724    1.98776
  0   151      0.31668    1.89529
  0   152      0.45168    1.64864

  1   149     -0.57367    1.99998
  1   150     -0.39915    1.99991
  1   151      0.34159    1.86763
  1   152      0.39788    1.77866


Fermi level: 0.60627

No gap

Forces in eV/Ang:
  0 Au    0.00730    0.00421   -0.10294
  1 Au   -0.00000    0.01129   -0.02200
  2 Au   -0.00730    0.00421   -0.10294
  3 Au    0.00978   -0.00565   -0.02200
  4 Au   -0.00978   -0.00565   -0.02200
  5 Au    0.00000    0.00250   -0.01578
  6 Au    0.00000   -0.00843   -0.10294
  7 Au    0.00217   -0.00125   -0.01578
  8 Au   -0.00217   -0.00125   -0.01578
  9 Au    0.00000   -0.13027    0.03981
 10 Au   -0.00620   -0.00358    0.01695
 11 Au    0.00620   -0.00358    0.01695
 12 Au   -0.00858    0.00496    0.02982
 13 Au    0.00000    0.00716    0.01695
 14 Au    0.00858    0.00496    0.02982
 15 Au    0.11281    0.06513    0.03981
 16 Au   -0.11281    0.06513    0.03981
 17 Au    0.00000   -0.00991    0.02982
 18 Au   -0.00000    0.00000    0.71420
 19 Au    0.20060    0.01003    0.02379
 20 Au   -0.20060    0.01003    0.02379
 21 Au    0.10899    0.16871    0.02379
 22 Au    0.00000    0.00000    0.02533
 23 Au   -0.10899    0.16871    0.02379
 24 Au   -0.09162   -0.17874    0.02379
 25 Au    0.09162   -0.17874    0.02379
 26 Au    0.00000    0.00000    0.00945
 27 O     0.00000    0.00000   -0.76380

System changes: positions 

Initializing position-dependent things.

Density initialized from wave functions
                                              
                                              
                                              
                                              
                                              
                                              
                                              
                  Au     Au     Au            
       O                                      
            Au     AAu    AAu    Au           
       Au     Au     AAu    Au                
                                              
        Au     Au     AAu    Au     Au        
                                              
                 Au     Au     Au             
                                              
           Au      Au     Au                  
                                              
                                              
                                              
                                              

Positions:
   0 Au     1.476793    0.852627    6.000000    ( 0.0000,  0.0000,  0.0000)
   1 Au     4.430378    0.852627    6.000000    ( 0.0000,  0.0000,  0.0000)
   2 Au     7.383963    0.852627    6.000000    ( 0.0000,  0.0000,  0.0000)
   3 Au     2.953585    3.410506    6.000000    ( 0.0000,  0.0000,  0.0000)
   4 Au     5.907170    3.410506    6.000000    ( 0.0000,  0.0000,  0.0000)
   5 Au     8.860755    3.410506    6.000000    ( 0.0000,  0.0000,  0.0000)
   6 Au     4.430378    5.968386    6.000000    ( 0.0000,  0.0000,  0.0000)
   7 Au     7.383963    5.968386    6.000000    ( 0.0000,  0.0000,  0.0000)
   8 Au    10.337548    5.968386    6.000000    ( 0.0000,  0.0000,  0.0000)
   9 Au    -0.000000    1.705253    8.411592    ( 0.0000,  0.0000,  0.0000)
  10 Au     2.953585    1.705253    8.411592    ( 0.0000,  0.0000,  0.0000)
  11 Au     5.907170    1.705253    8.411592    ( 0.0000,  0.0000,  0.0000)
  12 Au     1.476793    4.263133    8.411592    ( 0.0000,  0.0000,  0.0000)
  13 Au     4.430378    4.263133    8.411592    ( 0.0000,  0.0000,  0.0000)
  14 Au     7.383963    4.263133    8.411592    ( 0.0000,  0.0000,  0.0000)
  15 Au     2.953585    6.821012    8.411592    ( 0.0000,  0.0000,  0.0000)
  16 Au     5.907170    6.821012    8.411592    ( 0.0000,  0.0000,  0.0000)
  17 Au     8.860755    6.821012    8.411592    ( 0.0000,  0.0000,  0.0000)
  18 Au     0.000000    0.000000   10.823184    ( 0.0000,  0.0000,  0.0000)
  19 Au     2.953585    0.000000   10.823184    ( 0.0000,  0.0000,  0.0000)
  20 Au     5.907170    0.000000   10.823184    ( 0.0000,  0.0000,  0.0000)
  21 Au     1.476793    2.557880   10.823184    ( 0.0000,  0.0000,  0.0000)
  22 Au     4.430378    2.557880   10.823184    ( 0.0000,  0.0000,  0.0000)
  23 Au     7.383963    2.557880   10.823184    ( 0.0000,  0.0000,  0.0000)
  24 Au     2.953585    5.115759   10.823184    ( 0.0000,  0.0000,  0.0000)
  25 Au     5.907170    5.115759   10.823184    ( 0.0000,  0.0000,  0.0000)
  26 Au     8.860755    5.115759   10.823184    ( 0.0000,  0.0000,  0.0000)
  27 O      0.000000    0.000000   12.423184    ( 0.0000,  0.0000,  0.0000)

Unit cell:
           periodic     x           y           z      points  spacing
  1. axis:    yes    8.860755    0.000000    0.000000    45     0.1705
  2. axis:    yes    4.430378    7.673639    0.000000    45     0.1705
  3. axis:    no     0.000000    0.000000   16.823184    84     0.2003

  Lengths:   8.860755   8.860755  16.823184
  Angles:   90.000000  90.000000  60.000000

Effective grid spacing dv^(1/3) = 0.1888

     iter     time        total  log10-change:
                         energy  eigst   dens
iter:   1 11:13:53   -92.953373  -1.57
iter:   2 11:13:59   -80.988512  -1.79  -1.58
iter:   3 11:14:04   -80.985455  -1.61  -1.92
iter:   4 11:14:09   -79.578854  -2.65  -1.98
iter:   5 11:14:15   -79.533537  -3.69  -2.51
iter:   6 11:14:20   -79.432187c -2.62  -2.55
iter:   7 11:14:26   -79.381655  -3.54  -2.77
iter:   8 11:14:31   -79.354685c -3.62  -2.93
iter:   9 11:14:36   -79.358310c -4.18  -3.08
iter:  10 11:14:42   -79.351985c -4.36  -3.26
iter:  11 11:14:47   -79.354146c -4.74  -3.37
iter:  12 11:14:53   -79.352874c -5.07  -3.50
iter:  13 11:14:58   -79.352726c -5.22  -3.69
iter:  14 11:15:03   -79.353362c -5.65  -3.81
iter:  15 11:15:09   -79.353557c -5.55  -3.88
iter:  16 11:15:14   -79.353505c -6.27  -3.93
iter:  17 11:15:20   -79.353213c -6.12  -3.97
iter:  18 11:15:25   -79.353203c -6.88  -4.17c
iter:  19 11:15:30   -79.353169c -6.98  -4.22c
iter:  20 11:15:36   -79.353096c -6.39  -4.34c
iter:  21 11:15:41   -79.353099c -7.54c -4.67c

Converged after 21 iterations.

Dipole moment: (-0.083734, -0.048344, -0.310203) |e|*Ang

Energy contributions relative to reference atoms: (reference = -13950194.172252)

Kinetic:       -265.638839
Potential:     +213.879285
External:        +0.000000
XC:             -30.734728
Entropy (-ST):   -0.327307
Local:           +3.304836
--------------------------
Free energy:    -79.516753
Extrapolated:   -79.353099

Showing only first 2 kpts
 Kpt  Band  Eigenvalues  Occupancy
  0   149     -0.08334    1.99953
  0   150      0.18482    1.99322
  0   151      0.54813    1.77200
  0   152      0.61831    1.58784

  1   149     -0.49510    1.99999
  1   150     -0.29661    1.99994
  1   151      0.52974    1.80660
  1   152      0.53769    1.79226


Fermi level: 0.75318

No gap

Forces in eV/Ang:
  0 Au    0.00800    0.00462   -0.10467
  1 Au   -0.00000    0.00848   -0.03057
  2 Au   -0.00800    0.00462   -0.10467
  3 Au    0.00735   -0.00424   -0.03057
  4 Au   -0.00735   -0.00424   -0.03057
  5 Au   -0.00000   -0.01125   -0.02653
  6 Au    0.00000   -0.00924   -0.10467
  7 Au   -0.00974    0.00562   -0.02653
  8 Au    0.00974    0.00562   -0.02653
  9 Au    0.00000   -0.11097   -0.04602
 10 Au   -0.00564   -0.00325   -0.00444
 11 Au    0.00564   -0.00325   -0.00444
 12 Au   -0.01372    0.00792    0.00632
 13 Au   -0.00000    0.00651   -0.00444
 14 Au    0.01372    0.00792    0.00632
 15 Au    0.09610    0.05548   -0.04602
 16 Au   -0.09610    0.05548   -0.04602
 17 Au    0.00000   -0.01584    0.00632
 18 Au    0.00000   -0.00000  -18.22020
 19 Au    0.35857    0.00274   -0.04219
 20 Au   -0.35857    0.00274   -0.04219
 21 Au    0.18166    0.30916   -0.04219
 22 Au    0.00000    0.00000    0.04378
 23 Au   -0.18166    0.30916   -0.04219
 24 Au   -0.17691   -0.31190   -0.04219
 25 Au    0.17691   -0.31190   -0.04219
 26 Au    0.00000    0.00000    0.02520
 27 O     0.00000    0.00000   19.02176

System changes: positions 

Initializing position-dependent things.

Density initialized from wave functions
                                              
                                              
                                              
                                              
                                              
                                              
                                              
                  Au     Au     Au            
       O                                      
            Au     AAu    AAu    Au           
       Au     Au      Au                      
              Au     Au     Au                
        Au     Au     AAu    Au     Au        
                                              
                 Au     Au     Au             
                                              
           Au      Au     Au                  
                                              
                                              
                                              
                                              

Positions:
   0 Au     1.476793    0.852627    6.000000    ( 0.0000,  0.0000,  0.0000)
   1 Au     4.430378    0.852627    6.000000    ( 0.0000,  0.0000,  0.0000)
   2 Au     7.383963    0.852627    6.000000    ( 0.0000,  0.0000,  0.0000)
   3 Au     2.953585    3.410506    6.000000    ( 0.0000,  0.0000,  0.0000)
   4 Au     5.907170    3.410506    6.000000    ( 0.0000,  0.0000,  0.0000)
   5 Au     8.860755    3.410506    6.000000    ( 0.0000,  0.0000,  0.0000)
   6 Au     4.430378    5.968386    6.000000    ( 0.0000,  0.0000,  0.0000)
   7 Au     7.383963    5.968386    6.000000    ( 0.0000,  0.0000,  0.0000)
   8 Au    10.337548    5.968386    6.000000    ( 0.0000,  0.0000,  0.0000)
   9 Au    -0.000000    1.705253    8.411592    ( 0.0000,  0.0000,  0.0000)
  10 Au     2.953585    1.705253    8.411592    ( 0.0000,  0.0000,  0.0000)
  11 Au     5.907170    1.705253    8.411592    ( 0.0000,  0.0000,  0.0000)
  12 Au     1.476793    4.263133    8.411592    ( 0.0000,  0.0000,  0.0000)
  13 Au     4.430378    4.263133    8.411592    ( 0.0000,  0.0000,  0.0000)
  14 Au     7.383963    4.263133    8.411592    ( 0.0000,  0.0000,  0.0000)
  15 Au     2.953585    6.821012    8.411592    ( 0.0000,  0.0000,  0.0000)
  16 Au     5.907170    6.821012    8.411592    ( 0.0000,  0.0000,  0.0000)
  17 Au     8.860755    6.821012    8.411592    ( 0.0000,  0.0000,  0.0000)
  18 Au     0.000000    0.000000   10.823184    ( 0.0000,  0.0000,  0.0000)
  19 Au     2.953585    0.000000   10.823184    ( 0.0000,  0.0000,  0.0000)
  20 Au     5.907170    0.000000   10.823184    ( 0.0000,  0.0000,  0.0000)
  21 Au     1.476793    2.557880   10.823184    ( 0.0000,  0.0000,  0.0000)
  22 Au     4.430378    2.557880   10.823184    ( 0.0000,  0.0000,  0.0000)
  23 Au     7.383963    2.557880   10.823184    ( 0.0000,  0.0000,  0.0000)
  24 Au     2.953585    5.115759   10.823184    ( 0.0000,  0.0000,  0.0000)
  25 Au     5.907170    5.115759   10.823184    ( 0.0000,  0.0000,  0.0000)
  26 Au     8.860755    5.115759   10.823184    ( 0.0000,  0.0000,  0.0000)
  27 O      0.000000    0.000000   12.717216    ( 0.0000,  0.0000,  0.0000)

Unit cell:
           periodic     x           y           z      points  spacing
  1. axis:    yes    8.860755    0.000000    0.000000    45     0.1705
  2. axis:    yes    4.430378    7.673639    0.000000    45     0.1705
  3. axis:    no     0.000000    0.000000   16.823184    84     0.2003

  Lengths:   8.860755   8.860755  16.823184
  Angles:   90.000000  90.000000  60.000000

Effective grid spacing dv^(1/3) = 0.1888

     iter     time        total  log10-change:
                         energy  eigst   dens
iter:   1 11:15:49   -88.052046  -1.07
iter:   2 11:15:54   -83.962928  -2.27  -1.76
iter:   3 11:15:59   -82.769337  -1.97  -2.04
iter:   4 11:16:05   -82.426211  -2.91  -1.95
iter:   5 11:16:10   -81.938093  -2.73  -2.28
iter:   6 11:16:16   -82.163389  -2.42  -2.52
iter:   7 11:16:21   -81.783950  -3.25  -2.14
iter:   8 11:16:26   -81.756314  -3.68  -2.76
iter:   9 11:16:32   -81.733820c -3.97  -2.89
iter:  10 11:16:37   -81.727791c -4.28  -3.09
iter:  11 11:16:43   -81.733352c -4.21  -3.24
iter:  12 11:16:48   -81.725818c -4.81  -3.25
iter:  13 11:16:53   -81.726163c -5.45  -3.50
iter:  14 11:16:59   -81.725245c -4.85  -3.58
iter:  15 11:17:04   -81.725118c -5.89  -3.83
iter:  16 11:17:10   -81.725117c -6.41  -3.90
iter:  17 11:17:15   -81.725218c -6.15  -3.96
iter:  18 11:17:20   -81.725017c -6.09  -4.16c
iter:  19 11:17:26   -81.725045c -6.63  -4.20c
iter:  20 11:17:31   -81.725083c -6.46  -4.28c
iter:  21 11:17:37   -81.725228c -6.69  -4.31c
iter:  22 11:17:42   -81.725182c -7.39  -4.49c
iter:  23 11:17:47   -81.725145c -7.59c -4.52c

Converged after 23 iterations.

Dipole moment: (-0.099809, -0.057625, -0.578003) |e|*Ang

Energy contributions relative to reference atoms: (reference = -13950194.172252)

Kinetic:       -304.869222
Potential:     +247.005340
External:        +0.000000
XC:             -26.792149
Entropy (-ST):   -0.324722
Local:           +3.093247
--------------------------
Free energy:    -81.887506
Extrapolated:   -81.725145

Showing only first 2 kpts
 Kpt  Band  Eigenvalues  Occupancy
  0   149     -0.11350    1.99891
  0   150      0.11224    1.98961
  0   151      0.36334    1.87908
  0   152      0.48257    1.65015

  1   149     -0.55845    1.99999
  1   150     -0.37812    1.99992
  1   151      0.37838    1.86082
  1   152      0.41853    1.79896


Fermi level: 0.63768

No gap

Forces in eV/Ang:
  0 Au    0.00807    0.00466   -0.10896
  1 Au   -0.00000    0.01069   -0.03118
  2 Au   -0.00807    0.00466   -0.10896
  3 Au    0.00926   -0.00534   -0.03118
  4 Au   -0.00926   -0.00534   -0.03118
  5 Au    0.00000    0.00105   -0.02539
  6 Au    0.00000   -0.00932   -0.10896
  7 Au    0.00091   -0.00053   -0.02539
  8 Au   -0.00091   -0.00053   -0.02539
  9 Au    0.00000   -0.13226    0.02545
 10 Au   -0.00794   -0.00458    0.01530
 11 Au    0.00794   -0.00458    0.01530
 12 Au   -0.00863    0.00498    0.02836
 13 Au   -0.00000    0.00917    0.01530
 14 Au    0.00863    0.00498    0.02836
 15 Au    0.11454    0.06613    0.02545
 16 Au   -0.11454    0.06613    0.02545
 17 Au    0.00000   -0.00997    0.02836
 18 Au    0.00000    0.00000   -1.14900
 19 Au    0.22850    0.00892    0.01015
 20 Au   -0.22850    0.00892    0.01015
 21 Au    0.12198    0.19342    0.01015
 22 Au    0.00000    0.00000    0.02409
 23 Au   -0.12198    0.19342    0.01015
 24 Au   -0.10652   -0.20235    0.01015
 25 Au    0.10652   -0.20235    0.01015
 26 Au   -0.00000    0.00000    0.00674
 27 O     0.00000    0.00000    1.33225

System changes: positions 

Initializing position-dependent things.

Density initialized from wave functions
                                              
                                              
                                              
                                              
                                              
                                              
                                              
                  Au     Au     Au            
       O                                      
            Au     AAu    AAu    Au           
       Au     Au      Au                      
              Au     Au     Au                
        Au     Au     AAu    Au     Au        
                                              
                 Au     Au     Au             
                                              
           Au      Au     Au                  
                                              
                                              
                                              
                                              

Positions:
   0 Au     1.476793    0.852627    6.000000    ( 0.0000,  0.0000,  0.0000)
   1 Au     4.430378    0.852627    6.000000    ( 0.0000,  0.0000,  0.0000)
   2 Au     7.383963    0.852627    6.000000    ( 0.0000,  0.0000,  0.0000)
   3 Au     2.953585    3.410506    6.000000    ( 0.0000,  0.0000,  0.0000)
   4 Au     5.907170    3.410506    6.000000    ( 0.0000,  0.0000,  0.0000)
   5 Au     8.860755    3.410506    6.000000    ( 0.0000,  0.0000,  0.0000)
   6 Au     4.430378    5.968386    6.000000    ( 0.0000,  0.0000,  0.0000)
   7 Au     7.383963    5.968386    6.000000    ( 0.0000,  0.0000,  0.0000)
   8 Au    10.337548    5.968386    6.000000    ( 0.0000,  0.0000,  0.0000)
   9 Au    -0.000000    1.705253    8.411592    ( 0.0000,  0.0000,  0.0000)
  10 Au     2.953585    1.705253    8.411592    ( 0.0000,  0.0000,  0.0000)
  11 Au     5.907170    1.705253    8.411592    ( 0.0000,  0.0000,  0.0000)
  12 Au     1.476793    4.263133    8.411592    ( 0.0000,  0.0000,  0.0000)
  13 Au     4.430378    4.263133    8.411592    ( 0.0000,  0.0000,  0.0000)
  14 Au     7.383963    4.263133    8.411592    ( 0.0000,  0.0000,  0.0000)
  15 Au     2.953585    6.821012    8.411592    ( 0.0000,  0.0000,  0.0000)
  16 Au     5.907170    6.821012    8.411592    ( 0.0000,  0.0000,  0.0000)
  17 Au     8.860755    6.821012    8.411592    ( 0.0000,  0.0000,  0.0000)
  18 Au     0.000000    0.000000   10.823184    ( 0.0000,  0.0000,  0.0000)
  19 Au     2.953585    0.000000   10.823184    ( 0.0000,  0.0000,  0.0000)
  20 Au     5.907170    0.000000   10.823184    ( 0.0000,  0.0000,  0.0000)
  21 Au     1.476793    2.557880   10.823184    ( 0.0000,  0.0000,  0.0000)
  22 Au     4.430378    2.557880   10.823184    ( 0.0000,  0.0000,  0.0000)
  23 Au     7.383963    2.557880   10.823184    ( 0.0000,  0.0000,  0.0000)
  24 Au     2.953585    5.115759   10.823184    ( 0.0000,  0.0000,  0.0000)
  25 Au     5.907170    5.115759   10.823184    ( 0.0000,  0.0000,  0.0000)
  26 Au     8.860755    5.115759   10.823184    ( 0.0000,  0.0000,  0.0000)
  27 O      0.000000    0.000000   12.781204    ( 0.0000,  0.0000,  0.0000)

Unit cell:
           periodic     x           y           z      points  spacing
  1. axis:    yes    8.860755    0.000000    0.000000    45     0.1705
  2. axis:    yes    4.430378    7.673639    0.000000    45     0.1705
  3. axis:    no     0.000000    0.000000   16.823184    84     0.2003

  Lengths:   8.860755   8.860755  16.823184
  Angles:   90.000000  90.000000  60.000000

Effective grid spacing dv^(1/3) = 0.1888

     iter     time        total  log10-change:
                         energy  eigst   dens
iter:   1 11:17:55   -82.210222  -2.72
iter:   2 11:18:00   -81.796733  -3.28  -2.30
iter:   3 11:18:06   -81.778300  -4.24  -2.91
iter:   4 11:18:11   -81.780253c -4.56  -3.05
iter:   5 11:18:17   -81.764089c -3.86  -3.10
iter:   6 11:18:22   -81.766224c -4.70  -3.13
iter:   7 11:18:27   -81.764399c -4.99  -3.53
iter:   8 11:18:33   -81.764153c -5.11  -3.76
iter:   9 11:18:38   -81.763721c -5.66  -3.90
iter:  10 11:18:43   -81.763867c -6.18  -4.15c
iter:  11 11:18:49   -81.763941c -6.87  -4.18c
iter:  12 11:18:54   -81.764035c -6.25  -4.27c
iter:  13 11:19:00   -81.763960c -7.34  -4.51c
iter:  14 11:19:05   -81.763943c -7.80c -4.58c

Converged after 14 iterations.

Dipole moment: (-0.101901, -0.058833, -0.630307) |e|*Ang

Energy contributions relative to reference atoms: (reference = -13950194.172252)

Kinetic:       -308.447021
Potential:     +250.053508
External:        +0.000000
XC:             -26.266595
Entropy (-ST):   -0.327815
Local:           +3.060072
--------------------------
Free energy:    -81.927851
Extrapolated:   -81.763943

Showing only first 2 kpts
 Kpt  Band  Eigenvalues  Occupancy
  0   149     -0.11257    1.99866
  0   150      0.10261    1.98851
  0   151      0.33380    1.88981
  0   152      0.46286    1.65024

  1   149     -0.56810    1.99999
  1   150     -0.39130    1.99992
  1   151      0.35532    1.86514
  1   152      0.40488    1.78780


Fermi level: 0.61800

No gap

Forces in eV/Ang:
  0 Au    0.00949    0.00548   -0.11038
  1 Au   -0.00000    0.01122   -0.02799
  2 Au   -0.00949    0.00548   -0.11038
  3 Au    0.00972   -0.00561   -0.02799
  4 Au   -0.00972   -0.00561   -0.02799
  5 Au    0.00000    0.00302   -0.02208
  6 Au   -0.00000   -0.01096   -0.11038
  7 Au    0.00261   -0.00151   -0.02208
  8 Au   -0.00261   -0.00151   -0.02208
  9 Au   -0.00000   -0.13656    0.04314
 10 Au   -0.00667   -0.00385    0.01573
 11 Au    0.00667   -0.00385    0.01573
 12 Au   -0.00934    0.00539    0.02777
 13 Au    0.00000    0.00770    0.01573
 14 Au    0.00934    0.00539    0.02777
 15 Au    0.11826    0.06828    0.04314
 16 Au   -0.11826    0.06828    0.04314
 17 Au    0.00000   -0.01078    0.02777
 18 Au   -0.00000    0.00000    0.12009
 19 Au    0.21597    0.00964    0.01655
 20 Au   -0.21597    0.00964    0.01655
 21 Au    0.11633    0.18221    0.01655
 22 Au    0.00000    0.00000    0.02970
 23 Au   -0.11633    0.18221    0.01655
 24 Au   -0.09964   -0.19185    0.01655
 25 Au    0.09964   -0.19185    0.01655
 26 Au    0.00000    0.00000    0.01330
 27 O     0.00000    0.00000   -0.05181

System changes: positions 

Initializing position-dependent things.

Density initialized from wave functions
                                              
                                              
                                              
                                              
                                              
                                              
                                              
                  Au     Au     Au            
       O                                      
            Au     AAu    AAu    Au           
       Au     Au      Au                      
              Au     Au     Au                
        Au     Au     AAu    Au     Au        
                                              
                 Au     Au     Au             
                                              
           Au      Au     Au                  
                                              
                                              
                                              
                                              

Positions:
   0 Au     1.476793    0.852627    6.000000    ( 0.0000,  0.0000,  0.0000)
   1 Au     4.430378    0.852627    6.000000    ( 0.0000,  0.0000,  0.0000)
   2 Au     7.383963    0.852627    6.000000    ( 0.0000,  0.0000,  0.0000)
   3 Au     2.953585    3.410506    6.000000    ( 0.0000,  0.0000,  0.0000)
   4 Au     5.907170    3.410506    6.000000    ( 0.0000,  0.0000,  0.0000)
   5 Au     8.860755    3.410506    6.000000    ( 0.0000,  0.0000,  0.0000)
   6 Au     4.430378    5.968386    6.000000    ( 0.0000,  0.0000,  0.0000)
   7 Au     7.383963    5.968386    6.000000    ( 0.0000,  0.0000,  0.0000)
   8 Au    10.337548    5.968386    6.000000    ( 0.0000,  0.0000,  0.0000)
   9 Au    -0.000000    1.705253    8.411592    ( 0.0000,  0.0000,  0.0000)
  10 Au     2.953585    1.705253    8.411592    ( 0.0000,  0.0000,  0.0000)
  11 Au     5.907170    1.705253    8.411592    ( 0.0000,  0.0000,  0.0000)
  12 Au     1.476793    4.263133    8.411592    ( 0.0000,  0.0000,  0.0000)
  13 Au     4.430378    4.263133    8.411592    ( 0.0000,  0.0000,  0.0000)
  14 Au     7.383963    4.263133    8.411592    ( 0.0000,  0.0000,  0.0000)
  15 Au     2.953585    6.821012    8.411592    ( 0.0000,  0.0000,  0.0000)
  16 Au     5.907170    6.821012    8.411592    ( 0.0000,  0.0000,  0.0000)
  17 Au     8.860755    6.821012    8.411592    ( 0.0000,  0.0000,  0.0000)
  18 Au     0.000000    0.000000   10.823184    ( 0.0000,  0.0000,  0.0000)
  19 Au     2.953585    0.000000   10.823184    ( 0.0000,  0.0000,  0.0000)
  20 Au     5.907170    0.000000   10.823184    ( 0.0000,  0.0000,  0.0000)
  21 Au     1.476793    2.557880   10.823184    ( 0.0000,  0.0000,  0.0000)
  22 Au     4.430378    2.557880   10.823184    ( 0.0000,  0.0000,  0.0000)
  23 Au     7.383963    2.557880   10.823184    ( 0.0000,  0.0000,  0.0000)
  24 Au     2.953585    5.115759   10.823184    ( 0.0000,  0.0000,  0.0000)
  25 Au     5.907170    5.115759   10.823184    ( 0.0000,  0.0000,  0.0000)
  26 Au     8.860755    5.115759   10.823184    ( 0.0000,  0.0000,  0.0000)
  27 O      0.000000    0.000000   12.778525    ( 0.0000,  0.0000,  0.0000)

Unit cell:
           periodic     x           y           z      points  spacing
  1. axis:    yes    8.860755    0.000000    0.000000    45     0.1705
  2. axis:    yes    4.430378    7.673639    0.000000    45     0.1705
  3. axis:    no     0.000000    0.000000   16.823184    84     0.2003

  Lengths:   8.860755   8.860755  16.823184
  Angles:   90.000000  90.000000  60.000000

Effective grid spacing dv^(1/3) = 0.1888

     iter     time        total  log10-change:
                         energy  eigst   dens
iter:   1 11:19:13   -81.761475  -5.49
iter:   2 11:19:18   -81.766292  -5.54  -3.47
iter:   3 11:19:23   -81.764161c -6.83  -3.78
iter:   4 11:19:29   -81.763786c -6.64  -4.39c
iter:   5 11:19:34   -81.764319c -7.11  -4.51c
iter:   6 11:19:40   -81.764172c -7.65c -4.56c

Converged after 6 iterations.

Dipole moment: (-0.102086, -0.058939, -0.628807) |e|*Ang

Energy contributions relative to reference atoms: (reference = -13950194.172252)

Kinetic:       -308.277329
Potential:     +249.902460
External:        +0.000000
XC:             -26.293960
Entropy (-ST):   -0.327411
Local:           +3.068363
--------------------------
Free energy:    -81.927877
Extrapolated:   -81.764172

Showing only first 2 kpts
 Kpt  Band  Eigenvalues  Occupancy
  0   149     -0.11294    1.99867
  0   150      0.10290    1.98855
  0   151      0.33441    1.88980
  0   152      0.46312    1.65125

  1   149     -0.56775    1.99999
  1   150     -0.39073    1.99992
  1   151      0.35559    1.86556
  1   152      0.40470    1.78928


Fermi level: 0.61861

No gap

Forces in eV/Ang:
  0 Au    0.00974    0.00563   -0.10928
  1 Au    0.00000    0.01126   -0.02723
  2 Au   -0.00974    0.00563   -0.10928
  3 Au    0.00975   -0.00563   -0.02723
  4 Au   -0.00975   -0.00563   -0.02723
  5 Au    0.00000    0.00321   -0.02137
  6 Au   -0.00000   -0.01125   -0.10928
  7 Au    0.00278   -0.00161   -0.02137
  8 Au   -0.00278   -0.00161   -0.02137
  9 Au    0.00000   -0.13245    0.03968
 10 Au   -0.00549   -0.00317    0.01750
 11 Au    0.00549   -0.00317    0.01750
 12 Au   -0.00934    0.00539    0.03005
 13 Au    0.00000    0.00633    0.01750
 14 Au    0.00934    0.00539    0.03005
 15 Au    0.11471    0.06623    0.03968
 16 Au   -0.11471    0.06623    0.03968
 17 Au    0.00000   -0.01078    0.03005
 18 Au    0.00000    0.00000    0.06874
 19 Au    0.21683    0.00977    0.01688
 20 Au   -0.21683    0.00977    0.01688
 21 Au    0.11688    0.18290    0.01688
 22 Au    0.00000    0.00000    0.02784
 23 Au   -0.11688    0.18290    0.01688
 24 Au   -0.09996   -0.19267    0.01688
 25 Au    0.09996   -0.19267    0.01688
 26 Au   -0.00000    0.00000    0.01126
 27 O     0.00000   -0.00000   -0.00152

Timing:                                      incl.     excl.
-------------------------------------------------------------------
Density initialized from wave functions:     1.866     1.605   0.3% |
 Symmetrize density:                         0.260     0.260   0.1% |
Forces:                                      6.451     6.451   1.3% ||
Hamiltonian:                                 1.562     0.019   0.0% |
 Atomic:                                     0.716     0.362   0.1% |
  XC Correction:                             0.354     0.354   0.1% |
 Calculate atomic Hamiltonians:              0.415     0.415   0.1% |
 Communicate:                                0.005     0.005   0.0% |
 Initialize Hamiltonian:                     0.000     0.000   0.0% |
 Poisson:                                    0.005     0.005   0.0% |
 XC 3D grid:                                 0.403     0.403   0.1% |
LCAO initialization:                         7.541     0.144   0.0% |
 LCAO eigensolver:                           0.459     0.001   0.0% |
  Calculate projections:                     0.003     0.003   0.0% |
  DenseAtomicCorrection:                     0.004     0.004   0.0% |
  Distribute overlap matrix:                 0.054     0.054   0.0% |
  Orbital Layouts:                           0.128     0.128   0.0% |
  Potential matrix:                          0.248     0.248   0.0% |
  Sum over cells:                            0.021     0.021   0.0% |
 LCAO to grid:                               6.696     6.696   1.3% ||
 Set positions (LCAO WFS):                   0.242     0.086   0.0% |
  Basic WFS set positions:                   0.004     0.004   0.0% |
  Basis functions set positions:             0.000     0.000   0.0% |
  P tci:                                     0.093     0.093   0.0% |
  ST tci:                                    0.030     0.030   0.0% |
  mktci:                                     0.028     0.028   0.0% |
PWDescriptor:                                0.360     0.360   0.1% |
Redistribute:                                0.007     0.007   0.0% |
SCF-cycle:                                 473.021     3.061   0.6% |
 Davidson:                                 403.624    73.679  14.8% |-----|
  Apply H:                                  46.366    45.207   9.1% |---|
   HMM T:                                    1.159     1.159   0.2% |
  Subspace diag:                            68.640     0.037   0.0% |
   calc_h_matrix:                           53.167     7.146   1.4% ||
    Apply H:                                46.021    44.851   9.0% |---|
     HMM T:                                  1.170     1.170   0.2% |
   diagonalize:                              3.901     3.901   0.8% |
   rotate_psi:                              11.534    11.534   2.3% ||
  calc. matrices:                          136.914    44.392   8.9% |---|
   Apply H:                                 92.522    90.200  18.1% |------|
    HMM T:                                   2.322     2.322   0.5% |
  diagonalize:                              55.504    55.504  11.2% |---|
  rotate_psi:                               22.521    22.521   4.5% |-|
 Density:                                   39.035     0.002   0.0% |
  Atomic density matrices:                   0.368     0.368   0.1% |
  Mix:                                       9.246     9.246   1.9% ||
  Multipole moments:                         0.018     0.018   0.0% |
  Pseudo density:                           29.401    24.043   4.8% |-|
   Symmetrize density:                       5.357     5.357   1.1% |
 Hamiltonian:                               25.713     0.310   0.1% |
  Atomic:                                   11.894     6.010   1.2% |
   XC Correction:                            5.884     5.884   1.2% |
  Calculate atomic Hamiltonians:             6.736     6.736   1.4% ||
  Communicate:                               0.116     0.116   0.0% |
  Poisson:                                   0.083     0.083   0.0% |
  XC 3D grid:                                6.574     6.574   1.3% ||
 Orthonormalize:                             1.588     0.003   0.0% |
  calc_s_matrix:                             0.191     0.191   0.0% |
  inverse-cholesky:                          0.091     0.091   0.0% |
  projections:                               0.954     0.954   0.2% |
  rotate_psi_s:                              0.350     0.350   0.1% |
Set symmetry:                                0.004     0.004   0.0% |
Other:                                       6.315     6.315   1.3% ||
-------------------------------------------------------------------
Total:                                               497.127 100.0%

Memory usage: 636.37 MiB
Date: Thu Mar  2 11:19:43 2023
