
  ___ ___ ___ _ _ _  
 |   |   |_  | | | | 
 | | | | | . | | | | 
 |__ |  _|___|_____|  22.8.0
 |___|_|             

User:   gotols@vera07-3
Date:   Fri Mar  3 09:47:12 2023
Arch:   x86_64
Pid:    2736393
CWD:    /cephyr/users/gotols/Vera/TIF320-Computational-materials-and-molecular-physics-Assignments
Python: 3.10.4
gpaw:   /apps/Arch/software/GPAW/22.8.0-foss-2022a/lib/python3.10/site-packages/gpaw
_gpaw:  /apps/Arch/software/GPAW/22.8.0-foss-2022a/lib/python3.10/site-packages/
        _gpaw.cpython-310-x86_64-linux-gnu.so
ase:    /apps/Arch/software/ASE/3.22.1-foss-2022a/lib/python3.10/site-packages/ase (version 3.22.1)
numpy:  /apps/Arch/software/SciPy-bundle/2022.05-foss-2022a/lib/python3.10/site-packages/numpy (version 1.22.3)
scipy:  /apps/Arch/software/SciPy-bundle/2022.05-foss-2022a/lib/python3.10/site-packages/scipy (version 1.8.1)
libxc:  5.2.3
units:  Angstrom and eV
cores: 16
OpenMP: False
OMP_NUM_THREADS: 1

Input parameters:
  kpts: [4 4 1]
  mode: {ecut: 450.00000000000006,
         name: pw}
  xc: PBE

System changes: positions, numbers, cell, pbc, initial_charges, initial_magmoms 

Initialize ...

species:
  Au:
    name: Gold
    id: b12133f335f6ca0d89c4b1ccaa844e9a
    Z: 79.0
    valence: 11
    core: 68
    charge: 0.0
    file: /apps/Common/software/GPAW-setups/0.9.20000/Au.PBE.gz
    compensation charges: {type: gauss,
                           rc: 0.42,
                           lmax: 2}
    cutoffs: {filter: 2.33,
              core: 2.81}
    valence states:
      #              energy  rcut
      - 6s(1.00)    -5.728   1.323
      - 6p(0.00)    -0.775   1.323
      - 5d(10.00)    -6.891   1.323
      -  s          21.484   1.323
      -  p          26.436   1.323
      -  d          20.321   1.323
  
    # Using partial waves for Au as LCAO basis

  O:
    name: Oxygen
    id: 32ecd46bf208036f09c70b0ec9a88b78
    Z: 8.0
    valence: 6
    core: 2
    charge: 0.0
    file: /apps/Common/software/GPAW-setups/0.9.20000/O.PBE.gz
    compensation charges: {type: gauss,
                           rc: 0.21,
                           lmax: 2}
    cutoffs: {filter: 1.17,
              core: 0.83}
    valence states:
      #              energy  rcut
      - 2s(2.00)   -23.961   0.688
      - 2p(4.00)    -9.029   0.598
      -  s           3.251   0.688
      -  p          18.182   0.598
      -  d           0.000   0.619
  
    # Using partial waves for O as LCAO basis

Reference energy: -13950194.172252  # eV

Spin-paired calculation

Convergence criteria:
 Maximum [total energy] change in last 3 cyles: 0.0005 eV / electron
 Maximum integral of absolute [dens]ity change: 0.0001 electrons / valence electron
 Maximum integral of absolute [eigenst]ate change: 4e-08 eV^2 / valence electron
 Maximum number of scf [iter]ations: 333
 (Square brackets indicate name in SCF output, whereas a 'c' in
 the SCF output indicates the quantity has converged.)

Symmetries present (total): 6

  ( 1  0  0)  ( 1 -1  0)  ( 0  1  0)  ( 0 -1  0)  (-1  1  0)  (-1  0  0)
  ( 0  1  0)  ( 0 -1  0)  ( 1  0  0)  ( 1 -1  0)  (-1  0  0)  (-1  1  0)
  ( 0  0  1)  ( 0  0  1)  ( 0  0  1)  ( 0  0  1)  ( 0  0  1)  ( 0  0  1)
Note: your k-points are not as symmetric as your crystal!

16 k-points: 4 x 4 x 1 Monkhorst-Pack grid
6 k-points in the irreducible part of the Brillouin zone
       k-points in crystal coordinates                weights
   0:     0.12500000   -0.12500000    0.00000000          2/16
   1:     0.12500000    0.12500000    0.00000000          2/16
   2:     0.37500000   -0.37500000    0.00000000          2/16
   3:     0.37500000   -0.12500000    0.00000000          4/16
   4:     0.37500000    0.12500000    0.00000000          4/16
   5:     0.37500000    0.37500000    0.00000000          2/16

Wave functions: Plane wave expansion
  Cutoff energy: 450.000 eV
  Number of coefficients (min, max): 24769, 24813
  Pulay-stress correction: 0.000000 eV/Ang^3 (de/decut=0.000000)
  Using FFTW library
  ScaLapack parameters: grid=1x1, blocksize=None
  Wavefunction extrapolation:
    Improved wavefunction reuse through dual PAW basis 

Occupation numbers: Fermi-Dirac:
  width: 0.1000  # eV
 

Eigensolver
   Davidson(niter=2) 

Densities:
  Coarse grid: 45*45*84 grid
  Fine grid: 90*90*168 grid
  Total Charge: 0.000000 

Density mixing:
  Method: separate
  Backend: pulay
  Linear mixing parameter: 0.05
  old densities: 5
  Damping of long wavelength oscillations: 50 

Hamiltonian:
  XC and Coulomb potentials evaluated on a 90*90*168 grid
  Using the PBE Exchange-Correlation functional
  External potential:
    NoExternalPotential
 

XC parameters: PBE with 2 nearest neighbor stencil

Memory estimate:
  Process memory now: 290.61 MiB
  Calculator: 310.60 MiB
    Density: 10.04 MiB
      Arrays: 4.23 MiB
      Localized functions: 4.11 MiB
      Mixer: 1.70 MiB
    Hamiltonian: 2.87 MiB
      Arrays: 2.77 MiB
      XC: 0.00 MiB
      Poisson: 0.00 MiB
      vbar: 0.10 MiB
    Wavefunctions: 297.70 MiB
      Arrays psit_nG: 211.27 MiB
      Eigensolver: 77.60 MiB
      Projections: 0.53 MiB
      Projectors: 1.42 MiB
      PW-descriptor: 6.88 MiB

Total number of cores used: 16
Parallelization over k-points: 2
Domain decomposition: 2 x 2 x 2

Number of atoms: 28
Number of atomic orbitals: 247
Number of bands in calculation: 186
Number of valence electrons: 303
Bands to converge: occupied

... initialized

Initializing position-dependent things.

Density initialized from atomic densities
Creating initial wave functions:
  186 bands from LCAO basis set

                                              
                                              
                                              
                                              
                                              
                                              
                                              
                  Au     Au     Au            
       O                                      
            Au     AAu    AAu    Au           
                                              
       Au     Au     AAu    Au                
        Au     Au     AAu    Au     Au        
                                              
                 Au     Au     Au             
                                              
           Au      Au     Au                  
                                              
                                              
                                              
                                              

Positions:
   0 Au     1.476793    0.852627    6.000000    ( 0.0000,  0.0000,  0.0000)
   1 Au     4.430378    0.852627    6.000000    ( 0.0000,  0.0000,  0.0000)
   2 Au     7.383963    0.852627    6.000000    ( 0.0000,  0.0000,  0.0000)
   3 Au     2.953585    3.410506    6.000000    ( 0.0000,  0.0000,  0.0000)
   4 Au     5.907170    3.410506    6.000000    ( 0.0000,  0.0000,  0.0000)
   5 Au     8.860755    3.410506    6.000000    ( 0.0000,  0.0000,  0.0000)
   6 Au     4.430378    5.968386    6.000000    ( 0.0000,  0.0000,  0.0000)
   7 Au     7.383963    5.968386    6.000000    ( 0.0000,  0.0000,  0.0000)
   8 Au    10.337548    5.968386    6.000000    ( 0.0000,  0.0000,  0.0000)
   9 Au    -0.000000    1.705253    8.411592    ( 0.0000,  0.0000,  0.0000)
  10 Au     2.953585    1.705253    8.411592    ( 0.0000,  0.0000,  0.0000)
  11 Au     5.907170    1.705253    8.411592    ( 0.0000,  0.0000,  0.0000)
  12 Au     1.476793    4.263133    8.411592    ( 0.0000,  0.0000,  0.0000)
  13 Au     4.430378    4.263133    8.411592    ( 0.0000,  0.0000,  0.0000)
  14 Au     7.383963    4.263133    8.411592    ( 0.0000,  0.0000,  0.0000)
  15 Au     2.953585    6.821012    8.411592    ( 0.0000,  0.0000,  0.0000)
  16 Au     5.907170    6.821012    8.411592    ( 0.0000,  0.0000,  0.0000)
  17 Au     8.860755    6.821012    8.411592    ( 0.0000,  0.0000,  0.0000)
  18 Au     0.000000    0.000000   10.823184    ( 0.0000,  0.0000,  0.0000)
  19 Au     2.953585    0.000000   10.823184    ( 0.0000,  0.0000,  0.0000)
  20 Au     5.907170    0.000000   10.823184    ( 0.0000,  0.0000,  0.0000)
  21 Au     1.476793    2.557880   10.823184    ( 0.0000,  0.0000,  0.0000)
  22 Au     4.430378    2.557880   10.823184    ( 0.0000,  0.0000,  0.0000)
  23 Au     7.383963    2.557880   10.823184    ( 0.0000,  0.0000,  0.0000)
  24 Au     2.953585    5.115759   10.823184    ( 0.0000,  0.0000,  0.0000)
  25 Au     5.907170    5.115759   10.823184    ( 0.0000,  0.0000,  0.0000)
  26 Au     8.860755    5.115759   10.823184    ( 0.0000,  0.0000,  0.0000)
  27 O      0.000000    0.000000   12.823184    ( 0.0000,  0.0000,  0.0000)

Unit cell:
           periodic     x           y           z      points  spacing
  1. axis:    yes    8.860755    0.000000    0.000000    45     0.1705
  2. axis:    yes    4.430378    7.673639    0.000000    45     0.1705
  3. axis:    no     0.000000    0.000000   16.823184    84     0.2003

  Lengths:   8.860755   8.860755  16.823184
  Angles:   90.000000  90.000000  60.000000

Effective grid spacing dv^(1/3) = 0.1888

     iter     time        total  log10-change:
                         energy  eigst   dens
iter:   1 09:47:28   -93.215010
iter:   2 09:47:33   -89.660877  -1.77  -1.32
iter:   3 09:47:39   -86.143237  -1.62  -1.35
iter:   4 09:47:44   -85.920071  -1.98  -1.45
iter:   5 09:47:50   -82.904715  -1.88  -1.45
iter:   6 09:47:55   -82.205216  -1.76  -1.69
iter:   7 09:48:01   -82.169041  -3.27  -2.00
iter:   8 09:48:06   -81.960940  -2.85  -2.01
iter:   9 09:48:12   -81.901577  -3.00  -2.15
iter:  10 09:48:18   -81.859439c -3.49  -2.42
iter:  11 09:48:23   -81.791570c -3.90  -2.42
iter:  12 09:48:28   -81.764169c -3.80  -2.60
iter:  13 09:48:34   -81.749771c -3.86  -2.86
iter:  14 09:48:40   -81.746485c -4.61  -3.13
iter:  15 09:48:45   -81.746316c -5.36  -3.26
iter:  16 09:48:51   -81.744911c -5.17  -3.28
iter:  17 09:48:56   -81.746112c -5.22  -3.41
iter:  18 09:49:02   -81.745932c -6.12  -3.59
iter:  19 09:49:07   -81.745674c -5.66  -3.61
iter:  20 09:49:13   -81.745492c -6.00  -3.77
iter:  21 09:49:18   -81.745514c -6.49  -3.84
iter:  22 09:49:24   -81.745639c -6.27  -3.92
iter:  23 09:49:29   -81.745506c -6.53  -4.14c
iter:  24 09:49:35   -81.745549c -7.67c -4.47c

Converged after 24 iterations.

Dipole moment: (-0.102846, -0.059378, -0.664073) |e|*Ang

Energy contributions relative to reference atoms: (reference = -13950194.172252)

Kinetic:       -311.131709
Potential:     +252.410707
External:        +0.000000
XC:             -25.934947
Entropy (-ST):   -0.330684
Local:           +3.075741
--------------------------
Free energy:    -81.910891
Extrapolated:   -81.745549

Showing only first 2 kpts
 Kpt  Band  Eigenvalues  Occupancy
  0   149     -0.11097    1.99847
  0   150      0.09724    1.98776
  0   151      0.31668    1.89529
  0   152      0.45168    1.64864

  1   149     -0.57367    1.99998
  1   150     -0.39915    1.99991
  1   151      0.34159    1.86763
  1   152      0.39788    1.77866


Fermi level: 0.60627

No gap

Forces in eV/Ang:
  0 Au    0.00730    0.00421   -0.10294
  1 Au    0.00000    0.01129   -0.02200
  2 Au   -0.00730    0.00421   -0.10294
  3 Au    0.00978   -0.00565   -0.02200
  4 Au   -0.00978   -0.00565   -0.02200
  5 Au    0.00000    0.00250   -0.01578
  6 Au   -0.00000   -0.00843   -0.10294
  7 Au    0.00217   -0.00125   -0.01578
  8 Au   -0.00217   -0.00125   -0.01578
  9 Au    0.00000   -0.13027    0.03981
 10 Au   -0.00620   -0.00358    0.01695
 11 Au    0.00620   -0.00358    0.01695
 12 Au   -0.00858    0.00496    0.02982
 13 Au   -0.00000    0.00716    0.01695
 14 Au    0.00858    0.00496    0.02982
 15 Au    0.11281    0.06513    0.03981
 16 Au   -0.11281    0.06513    0.03981
 17 Au    0.00000   -0.00991    0.02982
 18 Au   -0.00000    0.00000    0.71420
 19 Au    0.20060    0.01003    0.02379
 20 Au   -0.20060    0.01003    0.02379
 21 Au    0.10899    0.16871    0.02379
 22 Au   -0.00000    0.00000    0.02533
 23 Au   -0.10899    0.16871    0.02379
 24 Au   -0.09162   -0.17874    0.02379
 25 Au    0.09162   -0.17874    0.02379
 26 Au   -0.00000    0.00000    0.00945
 27 O     0.00000    0.00000   -0.76380

System changes: positions 

Initializing position-dependent things.

Density initialized from wave functions
                                              
                                              
                                              
                                              
                                              
                                              
                                              
                  Au     Au     Au            
       O                                      
             Au    AAu    AAu    Au           
       Au     AAu    Au     Au                
                                              
        Au     Au     AAu    Au     Au        
                                              
                 Au     Au     Au             
                                              
           Au      Au     Au                  
                                              
                                              
                                              
                                              

Positions:
   0 Au     1.479230    0.854034    5.965612    ( 0.0000,  0.0000,  0.0000)
   1 Au     4.430378    0.856399    5.992650    ( 0.0000,  0.0000,  0.0000)
   2 Au     7.381525    0.854034    5.965612    ( 0.0000,  0.0000,  0.0000)
   3 Au     2.956852    3.408620    5.992650    ( 0.0000,  0.0000,  0.0000)
   4 Au     5.903903    3.408620    5.992650    ( 0.0000,  0.0000,  0.0000)
   5 Au     8.860755    3.411342    5.994729    ( 0.0000,  0.0000,  0.0000)
   6 Au     4.430378    5.965571    5.965612    ( 0.0000,  0.0000,  0.0000)
   7 Au     7.384686    5.967968    5.994729    ( 0.0000,  0.0000,  0.0000)
   8 Au    10.336824    5.967968    5.994729    ( 0.0000,  0.0000,  0.0000)
   9 Au    -0.000000    1.661739    8.424889    ( 0.0000,  0.0000,  0.0000)
  10 Au     2.951513    1.704057    8.417253    ( 0.0000,  0.0000,  0.0000)
  11 Au     5.909242    1.704057    8.417253    ( 0.0000,  0.0000,  0.0000)
  12 Au     1.473926    4.264788    8.421555    ( 0.0000,  0.0000,  0.0000)
  13 Au     4.430378    4.265526    8.417253    ( 0.0000,  0.0000,  0.0000)
  14 Au     7.386830    4.264788    8.421555    ( 0.0000,  0.0000,  0.0000)
  15 Au     2.991269    6.842769    8.424889    ( 0.0000,  0.0000,  0.0000)
  16 Au     5.869486    6.842769    8.424889    ( 0.0000,  0.0000,  0.0000)
  17 Au     8.860755    6.817702    8.421555    ( 0.0000,  0.0000,  0.0000)
  18 Au    -0.000000    0.000000   11.061756    ( 0.0000,  0.0000,  0.0000)
  19 Au     3.020595    0.003350   10.831132    ( 0.0000,  0.0000,  0.0000)
  20 Au     5.840160    0.003350   10.831132    ( 0.0000,  0.0000,  0.0000)
  21 Au     1.513199    2.614237   10.831132    ( 0.0000,  0.0000,  0.0000)
  22 Au     4.430378    2.557880   10.831646    ( 0.0000,  0.0000,  0.0000)
  23 Au     7.347556    2.614237   10.831132    ( 0.0000,  0.0000,  0.0000)
  24 Au     2.922982    5.056052   10.831132    ( 0.0000,  0.0000,  0.0000)
  25 Au     5.937773    5.056052   10.831132    ( 0.0000,  0.0000,  0.0000)
  26 Au     8.860755    5.115759   10.826342    ( 0.0000,  0.0000,  0.0000)
  27 O      0.000000    0.000000   12.568043    ( 0.0000,  0.0000,  0.0000)

Unit cell:
           periodic     x           y           z      points  spacing
  1. axis:    yes    8.860755    0.000000    0.000000    45     0.1705
  2. axis:    yes    4.430378    7.673639    0.000000    45     0.1705
  3. axis:    no     0.000000    0.000000   16.823184    84     0.2003

  Lengths:   8.860755   8.860755  16.823184
  Angles:   90.000000  90.000000  60.000000

Effective grid spacing dv^(1/3) = 0.1888

     iter     time        total  log10-change:
                         energy  eigst   dens
iter:   1 09:49:42   -88.335502  -1.13
iter:   2 09:49:48   -78.418544  -1.73  -1.53
iter:   3 09:49:53   -77.889103  -2.19  -1.93
iter:   4 09:49:59   -77.680503  -2.97  -2.05
iter:   5 09:50:04   -77.385213  -2.29  -2.16
iter:   6 09:50:10   -77.276048  -2.75  -2.35
iter:   7 09:50:15   -77.206042  -3.20  -2.44
iter:   8 09:50:21   -77.197743c -3.71  -2.72
iter:   9 09:50:26   -77.189410c -3.69  -2.88
iter:  10 09:50:32   -77.187241c -4.20  -3.13
iter:  11 09:50:37   -77.186351c -5.02  -3.20
iter:  12 09:50:43   -77.184759c -4.71  -3.25
iter:  13 09:50:49   -77.184193c -4.86  -3.36
iter:  14 09:50:54   -77.184024c -5.66  -3.45
iter:  15 09:51:00   -77.184019c -4.88  -3.50
iter:  16 09:51:06   -77.183854c -5.91  -3.79
iter:  17 09:51:11   -77.183732c -5.52  -3.83
iter:  18 09:51:17   -77.183800c -6.48  -4.25c
iter:  19 09:51:22   -77.183775c -6.75  -4.25c
iter:  20 09:51:28   -77.183743c -6.88  -4.37c
iter:  21 09:51:33   -77.183740c -7.49c -4.56c

Converged after 21 iterations.

Dipole moment: (0.508352, 0.293497, -0.262805) |e|*Ang

Energy contributions relative to reference atoms: (reference = -13950194.172252)

Kinetic:       -250.375585
Potential:     +200.830121
External:        +0.000000
XC:             -30.965689
Entropy (-ST):   -0.326943
Local:           +3.490884
--------------------------
Free energy:    -77.347212
Extrapolated:   -77.183740

Showing only first 2 kpts
 Kpt  Band  Eigenvalues  Occupancy
  0   149     -0.07769    1.99958
  0   150      0.18459    1.99422
  0   151      0.55226    1.79434
  0   152      0.66958    1.45934

  1   149     -0.48996    1.99999
  1   150     -0.30179    1.99996
  1   151      0.56476    1.77010
  1   152      0.59248    1.70741


Fermi level: 0.76887

No gap

Forces in eV/Ang:
  0 Au    0.00276    0.00159   -0.02444
  1 Au    0.00000   -0.01879    0.01522
  2 Au   -0.00276    0.00159   -0.02444
  3 Au   -0.01627    0.00940    0.01522
  4 Au    0.01627    0.00940    0.01522
  5 Au    0.00000   -0.03865    0.05095
  6 Au    0.00000   -0.00319   -0.02444
  7 Au   -0.03347    0.01932    0.05095
  8 Au    0.03347    0.01932    0.05095
  9 Au   -0.00000    0.09575    0.13319
 10 Au   -0.04154   -0.02399   -0.07611
 11 Au    0.04154   -0.02399   -0.07611
 12 Au   -0.01839    0.01062   -0.17833
 13 Au   -0.00000    0.04797   -0.07611
 14 Au    0.01839    0.01062   -0.17833
 15 Au   -0.08292   -0.04788    0.13319
 16 Au    0.08292   -0.04788    0.13319
 17 Au    0.00000   -0.02124   -0.17833
 18 Au   -0.00000   -0.00000  -31.78709
 19 Au   -0.19883   -0.02360   -0.04371
 20 Au    0.19883   -0.02360   -0.04371
 21 Au   -0.11985   -0.16039   -0.04371
 22 Au    0.00000    0.00000    0.06527
 23 Au    0.11985   -0.16039   -0.04371
 24 Au    0.07897    0.18399   -0.04371
 25 Au   -0.07897    0.18399   -0.04371
 26 Au    0.00000   -0.00000    0.10686
 27 O     0.00000    0.00000   32.16448

System changes: positions 

Initializing position-dependent things.

Density initialized from wave functions
                                              
                                              
                                              
                                              
                                              
                                              
                                              
                 Au      Au     Au            
       O                                      
             Au    AAu    AAu    Au           
       Au      Au    Au                       
              Au     Au     Au                
        Au     Au     AAu    Au     Au        
                                              
                 Au     Au     Au             
                                              
           Au      Au     Au                  
                                              
                                              
                                              
                                              

Positions:
   0 Au     1.481741    0.855483    5.930394    ( 0.0000,  0.0000,  0.0000)
   1 Au     4.430378    0.859970    5.985402    ( 0.0000,  0.0000,  0.0000)
   2 Au     7.379014    0.855483    5.930394    ( 0.0000,  0.0000,  0.0000)
   3 Au     2.959945    3.406834    5.985402    ( 0.0000,  0.0000,  0.0000)
   4 Au     5.900810    3.406834    5.985402    ( 0.0000,  0.0000,  0.0000)
   5 Au     8.860755    3.411662    5.990077    ( 0.0000,  0.0000,  0.0000)
   6 Au     4.430378    5.962672    5.930394    ( 0.0000,  0.0000,  0.0000)
   7 Au     7.384964    5.967808    5.990077    ( 0.0000,  0.0000,  0.0000)
   8 Au    10.336546    5.967808    5.990077    ( 0.0000,  0.0000,  0.0000)
   9 Au    -0.000000    1.618904    8.440197    ( 0.0000,  0.0000,  0.0000)
  10 Au     2.948843    1.702515    8.421957    ( 0.0000,  0.0000,  0.0000)
  11 Au     5.911912    1.702515    8.421957    ( 0.0000,  0.0000,  0.0000)
  12 Au     1.470766    4.266612    8.429226    ( 0.0000,  0.0000,  0.0000)
  13 Au     4.430378    4.268608    8.421957    ( 0.0000,  0.0000,  0.0000)
  14 Au     7.389989    4.266612    8.429226    ( 0.0000,  0.0000,  0.0000)
  15 Au     3.028366    6.864187    8.440197    ( 0.0000,  0.0000,  0.0000)
  16 Au     5.832389    6.864187    8.440197    ( 0.0000,  0.0000,  0.0000)
  17 Au     8.860755    6.814054    8.429226    ( 0.0000,  0.0000,  0.0000)
  18 Au    -0.000000   -0.000000   10.869794    ( 0.0000,  0.0000,  0.0000)
  19 Au     3.085859    0.006427   10.838597    ( 0.0000,  0.0000,  0.0000)
  20 Au     5.774896    0.006427   10.838597    ( 0.0000,  0.0000,  0.0000)
  21 Au     1.548496    2.669219   10.838597    ( 0.0000,  0.0000,  0.0000)
  22 Au     4.430378    2.557880   10.841122    ( 0.0000,  0.0000,  0.0000)
  23 Au     7.312259    2.669219   10.838597    ( 0.0000,  0.0000,  0.0000)
  24 Au     2.893014    4.997993   10.838597    ( 0.0000,  0.0000,  0.0000)
  25 Au     5.967741    4.997993   10.838597    ( 0.0000,  0.0000,  0.0000)
  26 Au     8.860755    5.115759   10.831005    ( 0.0000,  0.0000,  0.0000)
  27 O      0.000000    0.000000   12.748349    ( 0.0000,  0.0000,  0.0000)

Unit cell:
           periodic     x           y           z      points  spacing
  1. axis:    yes    8.860755    0.000000    0.000000    45     0.1705
  2. axis:    yes    4.430378    7.673639    0.000000    45     0.1705
  3. axis:    no     0.000000    0.000000   16.823184    84     0.2003

  Lengths:   8.860755   8.860755  16.823184
  Angles:   90.000000  90.000000  60.000000

Effective grid spacing dv^(1/3) = 0.1888

     iter     time        total  log10-change:
                         energy  eigst   dens
iter:   1 09:51:41   -90.885262  -0.63
iter:   2 09:51:47   -86.510544  -1.94  -1.77
iter:   3 09:51:52   -86.658745  -1.41  -1.90
iter:   4 09:51:58   -82.679757  -1.88  -1.67
iter:   5 09:52:03   -81.984202  -2.96  -2.08
iter:   6 09:52:09   -83.043859  -2.16  -2.20
iter:   7 09:52:15   -81.539513  -2.70  -1.88
iter:   8 09:52:20   -81.508671  -3.49  -2.44
iter:   9 09:52:26   -81.428911c -3.45  -2.47
iter:  10 09:52:31   -81.439324c -4.06  -2.77
iter:  11 09:52:37   -81.449787c -4.30  -2.82
iter:  12 09:52:42   -81.425096c -4.20  -2.81
iter:  13 09:52:48   -81.423689c -4.89  -3.26
iter:  14 09:52:53   -81.424378c -4.86  -3.33
iter:  15 09:52:59   -81.422470c -4.95  -3.47
iter:  16 09:53:04   -81.423772c -5.66  -3.55
iter:  17 09:53:10   -81.423698c -5.24  -3.66
iter:  18 09:53:15   -81.423518c -6.07  -3.93
iter:  19 09:53:21   -81.423291c -6.59  -4.05c
iter:  20 09:53:27   -81.423510c -6.52  -4.18c
iter:  21 09:53:32   -81.423393c -6.84  -4.37c
iter:  22 09:53:38   -81.423400c -6.78  -4.32c
iter:  23 09:53:43   -81.423410c -7.72c -4.70c

Converged after 23 iterations.

Dipole moment: (1.117165, 0.644995, -0.580606) |e|*Ang

Energy contributions relative to reference atoms: (reference = -13950194.172252)

Kinetic:       -300.986608
Potential:     +243.089928
External:        +0.000000
XC:             -26.462940
Entropy (-ST):   -0.328068
Local:           +3.100245
--------------------------
Free energy:    -81.587444
Extrapolated:   -81.423410

Showing only first 2 kpts
 Kpt  Band  Eigenvalues  Occupancy
  0   149     -0.12754    1.99883
  0   150      0.07744    1.99094
  0   151      0.31906    1.90303
  0   152      0.50382    1.51139

  1   149     -0.56306    1.99998
  1   150     -0.42201    1.99994
  1   151      0.35011    1.87002
  1   152      0.44481    1.69608


Fermi level: 0.61674

No gap

Forces in eV/Ang:
  0 Au   -0.01542   -0.00890    0.03694
  1 Au   -0.00000   -0.03886    0.06123
  2 Au    0.01542   -0.00890    0.03694
  3 Au   -0.03365    0.01943    0.06123
  4 Au    0.03365    0.01943    0.06123
  5 Au    0.00000   -0.07010    0.13225
  6 Au    0.00000    0.01780    0.03694
  7 Au   -0.06071    0.03505    0.13225
  8 Au    0.06071    0.03505    0.13225
  9 Au   -0.00000    0.63726    0.02527
 10 Au   -0.03460   -0.01998   -0.12341
 11 Au    0.03460   -0.01998   -0.12341
 12 Au   -0.02928    0.01691   -0.35385
 13 Au    0.00000    0.03995   -0.12341
 14 Au    0.02928    0.01691   -0.35385
 15 Au   -0.55188   -0.31863    0.02527
 16 Au    0.55188   -0.31863    0.02527
 17 Au   -0.00000   -0.03381   -0.35385
 18 Au   -0.00000    0.00000   -1.29013
 19 Au   -0.98042   -0.01624    0.04335
 20 Au    0.98042   -0.01624    0.04335
 21 Au   -0.50427   -0.84095    0.04335
 22 Au    0.00000    0.00000    0.06532
 23 Au    0.50427   -0.84095    0.04335
 24 Au    0.47615    0.85719    0.04335
 25 Au   -0.47615    0.85719    0.04335
 26 Au    0.00000    0.00000    0.16396
 27 O     0.00000    0.00000    1.47634

System changes: positions 

Initializing position-dependent things.

Density initialized from wave functions
                                              
                                              
                                              
                                              
                                              
                                              
                                              
                  Au     Au     Au            
       O                                      
             Au    AAu    AAu    Au           
       Au      Au    Au                       
              Au     Au     Au                
        Au     Au     AAu    Au     Au        
                                              
                 Au     Au     Au             
                                              
           Au      Au     Au                  
                                              
                                              
                                              
                                              

Positions:
   0 Au     1.478772    0.853770    5.970480    ( 0.0000,  0.0000,  0.0000)
   1 Au     4.430378    0.855467    5.994254    ( 0.0000,  0.0000,  0.0000)
   2 Au     7.381983    0.853770    5.970480    ( 0.0000,  0.0000,  0.0000)
   3 Au     2.956045    3.409086    5.994254    ( 0.0000,  0.0000,  0.0000)
   4 Au     5.904710    3.409086    5.994254    ( 0.0000,  0.0000,  0.0000)
   5 Au     8.860755    3.410444    5.996836    ( 0.0000,  0.0000,  0.0000)
   6 Au     4.430378    5.966100    5.970480    ( 0.0000,  0.0000,  0.0000)
   7 Au     7.383909    5.968417    5.996836    ( 0.0000,  0.0000,  0.0000)
   8 Au    10.337601    5.968417    5.996836    ( 0.0000,  0.0000,  0.0000)
   9 Au    -0.000000    1.673758    8.423837    ( 0.0000,  0.0000,  0.0000)
  10 Au     2.951318    1.703944    8.415079    ( 0.0000,  0.0000,  0.0000)
  11 Au     5.909437    1.703944    8.415079    ( 0.0000,  0.0000,  0.0000)
  12 Au     1.473974    4.264760    8.416314    ( 0.0000,  0.0000,  0.0000)
  13 Au     4.430378    4.265750    8.415079    ( 0.0000,  0.0000,  0.0000)
  14 Au     7.386781    4.264760    8.416314    ( 0.0000,  0.0000,  0.0000)
  15 Au     2.980860    6.836760    8.423837    ( 0.0000,  0.0000,  0.0000)
  16 Au     5.879895    6.836760    8.423837    ( 0.0000,  0.0000,  0.0000)
  17 Au     8.860755    6.817758    8.416314    ( 0.0000,  0.0000,  0.0000)
  18 Au    -0.000000   -0.000000   10.897145    ( 0.0000,  0.0000,  0.0000)
  19 Au     3.001900    0.002662   10.830292    ( 0.0000,  0.0000,  0.0000)
  20 Au     5.858856    0.002662   10.830292    ( 0.0000,  0.0000,  0.0000)
  21 Au     1.503255    2.598390   10.830292    ( 0.0000,  0.0000,  0.0000)
  22 Au     4.430378    2.557880   10.831351    ( 0.0000,  0.0000,  0.0000)
  23 Au     7.357500    2.598390   10.830292    ( 0.0000,  0.0000,  0.0000)
  24 Au     2.931733    5.072587   10.830292    ( 0.0000,  0.0000,  0.0000)
  25 Au     5.929022    5.072587   10.830292    ( 0.0000,  0.0000,  0.0000)
  26 Au     8.860755    5.115759   10.827817    ( 0.0000,  0.0000,  0.0000)
  27 O      0.000000    0.000000   12.738013    ( 0.0000,  0.0000,  0.0000)

Unit cell:
           periodic     x           y           z      points  spacing
  1. axis:    yes    8.860755    0.000000    0.000000    45     0.1705
  2. axis:    yes    4.430378    7.673639    0.000000    45     0.1705
  3. axis:    no     0.000000    0.000000   16.823184    84     0.2003

  Lengths:   8.860755   8.860755  16.823184
  Angles:   90.000000  90.000000  60.000000

Effective grid spacing dv^(1/3) = 0.1888

     iter     time        total  log10-change:
                         energy  eigst   dens
iter:   1 09:53:51   -82.952494  -1.47
iter:   2 09:53:56   -82.101452  -2.87  -1.90
iter:   3 09:54:02   -81.846073  -3.09  -2.12
iter:   4 09:54:07   -81.718065  -2.88  -2.24
iter:   5 09:54:13   -81.685432  -3.13  -2.43
iter:   6 09:54:18   -81.667673c -3.62  -2.65
iter:   7 09:54:24   -81.665433c -3.90  -2.78
iter:   8 09:54:30   -81.664663c -5.04  -2.98
iter:   9 09:54:35   -81.663205c -4.31  -3.03
iter:  10 09:54:41   -81.664441c -5.04  -3.32
iter:  11 09:54:46   -81.664073c -5.45  -3.50
iter:  12 09:54:52   -81.663356c -4.99  -3.61
iter:  13 09:54:57   -81.663413c -6.01  -3.82
iter:  14 09:55:03   -81.663180c -6.15  -3.94
iter:  15 09:55:08   -81.663128c -6.51  -4.07c
iter:  16 09:55:14   -81.663135c -6.87  -4.24c
iter:  17 09:55:19   -81.663145c -7.39  -4.32c
iter:  18 09:55:25   -81.663151c -6.67  -4.36c
iter:  19 09:55:30   -81.663165c -7.44c -4.61c

Converged after 19 iterations.

Dipole moment: (0.285123, 0.164616, -0.561403) |e|*Ang

Energy contributions relative to reference atoms: (reference = -13950194.172252)

Kinetic:       -306.637251
Potential:     +248.364309
External:        +0.000000
XC:             -26.327254
Entropy (-ST):   -0.323709
Local:           +3.098885
--------------------------
Free energy:    -81.825020
Extrapolated:   -81.663165

Showing only first 2 kpts
 Kpt  Band  Eigenvalues  Occupancy
  0   149     -0.12282    1.99900
  0   150      0.10035    1.99077
  0   151      0.36203    1.88058
  0   152      0.49982    1.59759

  1   149     -0.56443    1.99999
  1   150     -0.39303    1.99993
  1   151      0.38366    1.85385
  1   152      0.43468    1.76787


Fermi level: 0.63770

No gap

Forces in eV/Ang:
  0 Au   -0.00429   -0.00248   -0.03323
  1 Au   -0.00000   -0.00688    0.00590
  2 Au    0.00429   -0.00248   -0.03323
  3 Au   -0.00596    0.00344    0.00590
  4 Au    0.00596    0.00344    0.00590
  5 Au    0.00000   -0.02894    0.03325
  6 Au    0.00000    0.00496   -0.03323
  7 Au   -0.02507    0.01447    0.03325
  8 Au    0.02507    0.01447    0.03325
  9 Au   -0.00000    0.04235    0.08022
 10 Au   -0.02145   -0.01238   -0.03760
 11 Au    0.02145   -0.01238   -0.03760
 12 Au   -0.00789    0.00455   -0.08916
 13 Au    0.00000    0.02476   -0.03760
 14 Au    0.00789    0.00455   -0.08916
 15 Au   -0.03668   -0.02118    0.08022
 16 Au    0.03668   -0.02118    0.08022
 17 Au    0.00000   -0.00911   -0.08916
 18 Au    0.00000   -0.00000   -2.65538
 19 Au   -0.10331   -0.01005   -0.00569
 20 Au    0.10331   -0.01005   -0.00569
 21 Au   -0.06036   -0.08444   -0.00569
 22 Au    0.00000    0.00000    0.03412
 23 Au    0.06036   -0.08444   -0.00569
 24 Au    0.04295    0.09449   -0.00569
 25 Au   -0.04295    0.09449   -0.00569
 26 Au   -0.00000    0.00000    0.05756
 27 O    -0.00000    0.00000    2.72906

System changes: positions 

Initializing position-dependent things.

Density initialized from wave functions
                                              
                                              
                                              
                                              
                                              
                                              
                                              
                  Au     Au     Au            
       O                                      
            Au     AAu    AAu    Au           
       Au                                     
              Au     AAu    Au                
        Au      Au    AAu    Au     Au        
                                              
                 Au     Au     Au             
                                              
           Au      Au     Au                  
                                              
                                              
                                              
                                              

Positions:
   0 Au     1.468197    0.847664    6.140516    ( 0.0000,  0.0000,  0.0000)
   1 Au     4.430378    0.841405    6.024029    ( 0.0000,  0.0000,  0.0000)
   2 Au     7.392558    0.847664    6.140516    ( 0.0000,  0.0000,  0.0000)
   3 Au     2.943867    3.416117    6.024029    ( 0.0000,  0.0000,  0.0000)
   4 Au     5.916888    3.416117    6.024029    ( 0.0000,  0.0000,  0.0000)
   5 Au     8.860755    3.415559    6.006927    ( 0.0000,  0.0000,  0.0000)
   6 Au     4.430378    5.978311    6.140516    ( 0.0000,  0.0000,  0.0000)
   7 Au     7.388339    5.965859    6.006927    ( 0.0000,  0.0000,  0.0000)
   8 Au    10.333172    5.965859    6.006927    ( 0.0000,  0.0000,  0.0000)
   9 Au    -0.000000    1.820846    8.348340    ( 0.0000,  0.0000,  0.0000)
  10 Au     2.967182    1.713103    8.403007    ( 0.0000,  0.0000,  0.0000)
  11 Au     5.893573    1.713103    8.403007    ( 0.0000,  0.0000,  0.0000)
  12 Au     1.492190    4.254243    8.411388    ( 0.0000,  0.0000,  0.0000)
  13 Au     4.430378    4.247432    8.403007    ( 0.0000,  0.0000,  0.0000)
  14 Au     7.368565    4.254243    8.411388    ( 0.0000,  0.0000,  0.0000)
  15 Au     2.853479    6.763216    8.348340    ( 0.0000,  0.0000,  0.0000)
  16 Au     6.007277    6.763216    8.348340    ( 0.0000,  0.0000,  0.0000)
  17 Au     8.860755    6.838792    8.411388    ( 0.0000,  0.0000,  0.0000)
  18 Au     0.000000    0.000000   10.905783    ( 0.0000,  0.0000,  0.0000)
  19 Au     2.777869   -0.011425   10.787443    ( 0.0000,  0.0000,  0.0000)
  20 Au     6.082886   -0.011425   10.787443    ( 0.0000,  0.0000,  0.0000)
  21 Au     1.379040    2.411417   10.787443    ( 0.0000,  0.0000,  0.0000)
  22 Au     4.430378    2.557880   10.779181    ( 0.0000,  0.0000,  0.0000)
  23 Au     7.481715    2.411417   10.787443    ( 0.0000,  0.0000,  0.0000)
  24 Au     3.031549    5.273646   10.787443    ( 0.0000,  0.0000,  0.0000)
  25 Au     5.829206    5.273646   10.787443    ( 0.0000,  0.0000,  0.0000)
  26 Au     8.860755    5.115759   10.789971    ( 0.0000,  0.0000,  0.0000)
  27 O     -0.000000   -0.000000   12.779108    ( 0.0000,  0.0000,  0.0000)

Unit cell:
           periodic     x           y           z      points  spacing
  1. axis:    yes    8.860755    0.000000    0.000000    45     0.1705
  2. axis:    yes    4.430378    7.673639    0.000000    45     0.1705
  3. axis:    no     0.000000    0.000000   16.823184    84     0.2003

  Lengths:   8.860755   8.860755  16.823184
  Angles:   90.000000  90.000000  60.000000

Effective grid spacing dv^(1/3) = 0.1888

     iter     time        total  log10-change:
                         energy  eigst   dens
iter:   1 09:55:38   -88.603912  -0.62
iter:   2 09:55:43   -83.555465  -1.98  -1.50
iter:   3 09:55:49   -82.338221  -2.54  -1.65
iter:   4 09:55:55   -80.798268  -1.82  -1.77
iter:   5 09:56:00   -80.665412  -2.31  -2.06
iter:   6 09:56:06   -80.574595  -2.84  -2.22
iter:   7 09:56:12   -80.550811c -3.51  -2.41
iter:   8 09:56:17   -80.551705c -3.75  -2.49
iter:   9 09:56:23   -80.546271c -4.49  -2.63
iter:  10 09:56:28   -80.539542c -3.60  -2.70
iter:  11 09:56:34   -80.541645c -4.34  -3.05
iter:  12 09:56:39   -80.539238c -4.82  -3.19
iter:  13 09:56:45   -80.537495c -4.44  -3.30
iter:  14 09:56:50   -80.537472c -5.54  -3.60
iter:  15 09:56:56   -80.537427c -6.00  -3.70
iter:  16 09:57:01   -80.537366c -6.46  -3.79
iter:  17 09:57:07   -80.537368c -6.31  -3.86
iter:  18 09:57:13   -80.537328c -6.83  -4.01c
iter:  19 09:57:18   -80.537320c -6.39  -4.08c
iter:  20 09:57:24   -80.537321c -6.95  -4.31c
iter:  21 09:57:29   -80.537362c -7.04  -4.35c
iter:  22 09:57:35   -80.537350c -7.67c -4.49c

Converged after 22 iterations.

Dipole moment: (-1.058991, -0.611409, -0.584748) |e|*Ang

Energy contributions relative to reference atoms: (reference = -13950194.172252)

Kinetic:       -254.642923
Potential:     +203.816336
External:        +0.000000
XC:             -32.731107
Entropy (-ST):   -0.321309
Local:           +3.180999
--------------------------
Free energy:    -80.698004
Extrapolated:   -80.537350

Showing only first 2 kpts
 Kpt  Band  Eigenvalues  Occupancy
  0   149     -0.06899    1.99888
  0   150      0.17542    1.98714
  0   151      0.43195    1.84470
  0   152      0.47622    1.76822

  1   149     -0.46620    1.99998
  1   150     -0.27289    1.99985
  1   151      0.38247    1.90235
  1   152      0.38733    1.89773


Fermi level: 0.67941

No gap

Forces in eV/Ang:
  0 Au    0.09907    0.05720   -0.66704
  1 Au    0.00000    0.06199   -0.18113
  2 Au   -0.09907    0.05720   -0.66704
  3 Au    0.05369   -0.03100   -0.18113
  4 Au   -0.05369   -0.03100   -0.18113
  5 Au    0.00000    0.20348   -0.32924
  6 Au    0.00000   -0.11440   -0.66704
  7 Au    0.17622   -0.10174   -0.32924
  8 Au   -0.17622   -0.10174   -0.32924
  9 Au   -0.00000   -0.68146    0.37053
 10 Au    0.02590    0.01496    0.25945
 11 Au   -0.02590    0.01496    0.25945
 12 Au   -0.04239    0.02448    0.32696
 13 Au    0.00000   -0.02991    0.25945
 14 Au    0.04239    0.02448    0.32696
 15 Au    0.59017    0.34073    0.37053
 16 Au   -0.59017    0.34073    0.37053
 17 Au   -0.00000   -0.04895    0.32696
 18 Au   -0.00000   -0.00000   -1.89354
 19 Au    1.31438    0.17075    0.08469
 20 Au   -1.31438    0.17075    0.08469
 21 Au    0.80507    1.05291    0.08469
 22 Au   -0.00000    0.00000    0.06767
 23 Au   -0.80507    1.05291    0.08469
 24 Au   -0.50932   -1.22367    0.08469
 25 Au    0.50932   -1.22367    0.08469
 26 Au    0.00000    0.00000   -0.09406
 27 O    -0.00000    0.00000    2.09329

System changes: positions 

Initializing position-dependent things.

Density initialized from wave functions
                                              
                                              
                                              
                                              
                                              
                                              
                                              
                                              
       O          Au     Au     Au            
             Au    AAu    AAu                 
                                 Au           
       Au    AuAu    Au     Au                
                                              
        Au     Au     AAu    Au     Au        
                                              
                 Au     Au     Au             
                   Au                         
           Au             Au                  
                                              
                                              
                                              
                                              

Positions:
   0 Au     1.484846    0.857276    5.850495    ( 0.0000,  0.0000,  0.0000)
   1 Au     4.430378    0.861373    5.979512    ( 0.0000,  0.0000,  0.0000)
   2 Au     7.375909    0.857276    5.850495    ( 0.0000,  0.0000,  0.0000)
   3 Au     2.961160    3.406133    5.979512    ( 0.0000,  0.0000,  0.0000)
   4 Au     5.899595    3.406133    5.979512    ( 0.0000,  0.0000,  0.0000)
   5 Au     8.860755    3.398854    6.004596    ( 0.0000,  0.0000,  0.0000)
   6 Au     4.430378    5.959087    5.850495    ( 0.0000,  0.0000,  0.0000)
   7 Au     7.373871    5.974212    6.004596    ( 0.0000,  0.0000,  0.0000)
   8 Au    10.347639    5.974212    6.004596    ( 0.0000,  0.0000,  0.0000)
   9 Au    -0.000000    1.639816    8.480159    ( 0.0000,  0.0000,  0.0000)
  10 Au     2.935914    1.695051    8.409956    ( 0.0000,  0.0000,  0.0000)
  11 Au     5.924841    1.695051    8.409956    ( 0.0000,  0.0000,  0.0000)
  12 Au     1.457190    4.274450    8.379792    ( 0.0000,  0.0000,  0.0000)
  13 Au     4.430378    4.283538    8.409956    ( 0.0000,  0.0000,  0.0000)
  14 Au     7.403565    4.274450    8.379792    ( 0.0000,  0.0000,  0.0000)
  15 Au     3.010255    6.853731    8.480159    ( 0.0000,  0.0000,  0.0000)
  16 Au     5.850500    6.853731    8.480159    ( 0.0000,  0.0000,  0.0000)
  17 Au     8.860755    6.798377    8.379792    ( 0.0000,  0.0000,  0.0000)
  18 Au    -0.000000    0.000000   10.611909    ( 0.0000,  0.0000,  0.0000)
  19 Au     3.053123    0.011165   10.867115    ( 0.0000,  0.0000,  0.0000)
  20 Au     5.807633    0.011165   10.867115    ( 0.0000,  0.0000,  0.0000)
  21 Au     1.536230    2.638499   10.867115    ( 0.0000,  0.0000,  0.0000)
  22 Au     4.430378    2.557880   10.876947    ( 0.0000,  0.0000,  0.0000)
  23 Au     7.324525    2.638499   10.867115    ( 0.0000,  0.0000,  0.0000)
  24 Au     2.913485    5.023975   10.867115    ( 0.0000,  0.0000,  0.0000)
  25 Au     5.947270    5.023975   10.867115    ( 0.0000,  0.0000,  0.0000)
  26 Au     8.860755    5.115759   10.874065    ( 0.0000,  0.0000,  0.0000)
  27 O      0.000000    0.000000   13.007692    ( 0.0000,  0.0000,  0.0000)

Unit cell:
           periodic     x           y           z      points  spacing
  1. axis:    yes    8.860755    0.000000    0.000000    45     0.1705
  2. axis:    yes    4.430378    7.673639    0.000000    45     0.1705
  3. axis:    no     0.000000    0.000000   16.823184    84     0.2003

  Lengths:   8.860755   8.860755  16.823184
  Angles:   90.000000  90.000000  60.000000

Effective grid spacing dv^(1/3) = 0.1888

     iter     time        total  log10-change:
                         energy  eigst   dens
iter:   1 09:57:42  -100.664836  -0.15
iter:   2 09:57:48   -89.196007  -1.55  -1.29
iter:   3 09:57:53   -83.644812  -1.32  -1.44
iter:   4 09:57:59   -82.275488  -2.75  -1.61
iter:   5 09:58:04   -81.667344  -1.90  -1.74
iter:   6 09:58:10   -80.827323  -2.38  -1.78
iter:   7 09:58:15   -80.703076  -2.50  -2.07
iter:   8 09:58:21   -80.635709  -2.81  -2.18
iter:   9 09:58:26   -80.557216c -3.48  -2.31
iter:  10 09:58:32   -80.533724c -3.34  -2.48
iter:  11 09:58:37   -80.534217c -3.72  -2.57
iter:  12 09:58:43   -80.534663c -4.25  -2.83
iter:  13 09:58:49   -80.530554c -4.08  -3.02
iter:  14 09:58:54   -80.529630c -5.01  -3.24
iter:  15 09:59:00   -80.531357c -5.19  -3.37
iter:  16 09:59:06   -80.530999c -5.11  -3.43
iter:  17 09:59:11   -80.530528c -5.73  -3.58
iter:  18 09:59:17   -80.530283c -5.60  -3.63
iter:  19 09:59:22   -80.530227c -5.96  -3.71
iter:  20 09:59:28   -80.530097c -6.25  -3.80
iter:  21 09:59:33   -80.530112c -6.56  -3.88
iter:  22 09:59:39   -80.529934c -6.43  -3.99
iter:  23 09:59:45   -80.530208c -6.22  -4.03c
iter:  24 09:59:50   -80.530140c -7.16  -4.32c
iter:  25 09:59:56   -80.530053c -7.40c -4.44c

Converged after 25 iterations.

Dipole moment: (-0.337861, -0.195064, -0.817355) |e|*Ang

Energy contributions relative to reference atoms: (reference = -13950194.172252)

Kinetic:       -314.433671
Potential:     +254.695991
External:        +0.000000
XC:             -23.583613
Entropy (-ST):   -0.375621
Local:           +2.979051
--------------------------
Free energy:    -80.717863
Extrapolated:   -80.530053

Showing only first 2 kpts
 Kpt  Band  Eigenvalues  Occupancy
  0   149     -0.11353    1.99633
  0   150      0.04605    1.98203
  0   151      0.21006    1.91069
  0   152      0.38582    1.57352

  1   149     -0.59535    1.99997
  1   150     -0.46667    1.99989
  1   151      0.22211    1.89982
  1   152      0.36542    1.63798


Fermi level: 0.51637

No gap

Forces in eV/Ang:
  0 Au   -0.09581   -0.05532    0.23146
  1 Au   -0.00000   -0.00132    0.04603
  2 Au    0.09581   -0.05532    0.23146
  3 Au   -0.00114    0.00066    0.04603
  4 Au    0.00114    0.00066    0.04603
  5 Au   -0.00000   -0.15864    0.00309
  6 Au    0.00000    0.11063    0.23146
  7 Au   -0.13739    0.07932    0.00309
  8 Au    0.13739    0.07932    0.00309
  9 Au   -0.00000    0.98629   -0.81277
 10 Au    0.05732    0.03310   -0.03461
 11 Au   -0.05732    0.03310   -0.03461
 12 Au    0.12934   -0.07468    0.12872
 13 Au    0.00000   -0.06619   -0.03461
 14 Au   -0.12934   -0.07468    0.12872
 15 Au   -0.85415   -0.49314   -0.81277
 16 Au    0.85415   -0.49314   -0.81277
 17 Au   -0.00000    0.14935    0.12872
 18 Au   -0.00000    0.00000    4.18652
 19 Au   -0.52595   -0.03800   -0.05030
 20 Au    0.52595   -0.03800   -0.05030
 21 Au   -0.29588   -0.43649   -0.05030
 22 Au    0.00000    0.00000   -0.09601
 23 Au    0.29588   -0.43649   -0.05030
 24 Au    0.23007    0.47449   -0.05030
 25 Au   -0.23007    0.47449   -0.05030
 26 Au    0.00000    0.00000   -0.06869
 27 O     0.00000   -0.00000   -2.41643

System changes: positions 

Initializing position-dependent things.

Density initialized from wave functions
                                              
                                              
                                              
                                              
                                              
                                              
                                              
                  Au     Au     Au            
       O                                      
             Au    AAu    AAu    Au           
                                              
       Au     AAu    Au     Au                
        Au     Au     AAu    Au     Au        
                                              
                 Au     Au     Au             
                                              
           Au      Au     Au                  
                                              
                                              
                                              
                                              

Positions:
   0 Au     1.479319    0.854085    5.959394    ( 0.0000,  0.0000,  0.0000)
   1 Au     4.430378    0.857896    5.990172    ( 0.0000,  0.0000,  0.0000)
   2 Au     7.381436    0.854085    5.959394    ( 0.0000,  0.0000,  0.0000)
   3 Au     2.958149    3.407871    5.990172    ( 0.0000,  0.0000,  0.0000)
   4 Au     5.902606    3.407871    5.990172    ( 0.0000,  0.0000,  0.0000)
   5 Au     8.860755    3.411341    5.991085    ( 0.0000,  0.0000,  0.0000)
   6 Au     4.430378    5.965468    5.959394    ( 0.0000,  0.0000,  0.0000)
   7 Au     7.384686    5.967968    5.991085    ( 0.0000,  0.0000,  0.0000)
   8 Au    10.336824    5.967968    5.991085    ( 0.0000,  0.0000,  0.0000)
   9 Au    -0.000000    1.644786    8.422627    ( 0.0000,  0.0000,  0.0000)
  10 Au     2.951787    1.704215    8.420120    ( 0.0000,  0.0000,  0.0000)
  11 Au     5.908968    1.704215    8.420120    ( 0.0000,  0.0000,  0.0000)
  12 Au     1.474956    4.264193    8.431329    ( 0.0000,  0.0000,  0.0000)
  13 Au     4.430378    4.265209    8.420120    ( 0.0000,  0.0000,  0.0000)
  14 Au     7.385799    4.264193    8.431329    ( 0.0000,  0.0000,  0.0000)
  15 Au     3.005951    6.851246    8.422627    ( 0.0000,  0.0000,  0.0000)
  16 Au     5.854804    6.851246    8.422627    ( 0.0000,  0.0000,  0.0000)
  17 Au     8.860755    6.818892    8.431329    ( 0.0000,  0.0000,  0.0000)
  18 Au    -0.000000   -0.000000   10.735184    ( 0.0000,  0.0000,  0.0000)
  19 Au     3.053438    0.003661   10.830330    ( 0.0000,  0.0000,  0.0000)
  20 Au     5.807317    0.003661   10.830330    ( 0.0000,  0.0000,  0.0000)
  21 Au     1.529890    2.642524   10.830330    ( 0.0000,  0.0000,  0.0000)
  22 Au     4.430378    2.557880   10.831807    ( 0.0000,  0.0000,  0.0000)
  23 Au     7.330865    2.642524   10.830330    ( 0.0000,  0.0000,  0.0000)
  24 Au     2.906829    5.027453   10.830330    ( 0.0000,  0.0000,  0.0000)
  25 Au     5.953926    5.027453   10.830330    ( 0.0000,  0.0000,  0.0000)
  26 Au     8.860755    5.115759   10.823711    ( 0.0000,  0.0000,  0.0000)
  27 O      0.000000    0.000000   12.905871    ( 0.0000,  0.0000,  0.0000)

Unit cell:
           periodic     x           y           z      points  spacing
  1. axis:    yes    8.860755    0.000000    0.000000    45     0.1705
  2. axis:    yes    4.430378    7.673639    0.000000    45     0.1705
  3. axis:    no     0.000000    0.000000   16.823184    84     0.2003

  Lengths:   8.860755   8.860755  16.823184
  Angles:   90.000000  90.000000  60.000000

Effective grid spacing dv^(1/3) = 0.1888

     iter     time        total  log10-change:
                         energy  eigst   dens
iter:   1 10:00:03   -82.058898  -1.49
iter:   2 10:00:09   -81.740837  -2.82  -1.92
iter:   3 10:00:15   -81.554600  -3.45  -2.04
iter:   4 10:00:20   -81.354246  -2.56  -2.14
iter:   5 10:00:26   -81.408420  -3.19  -2.39
iter:   6 10:00:31   -81.346079c -3.76  -2.46
iter:   7 10:00:37   -81.325641c -3.67  -2.61
iter:   8 10:00:42   -81.305874c -4.24  -2.81
iter:   9 10:00:48   -81.311294c -4.25  -3.01
iter:  10 10:00:53   -81.305450c -4.85  -3.13
iter:  11 10:00:59   -81.304821c -5.06  -3.39
iter:  12 10:01:04   -81.304420c -5.75  -3.48
iter:  13 10:01:10   -81.304417c -5.18  -3.54
iter:  14 10:01:15   -81.304180c -5.86  -3.75
iter:  15 10:01:21   -81.304173c -6.68  -3.84
iter:  16 10:01:26   -81.304329c -6.15  -3.89
iter:  17 10:01:32   -81.304191c -6.48  -4.03c
iter:  18 10:01:37   -81.304138c -7.36  -4.46c
iter:  19 10:01:43   -81.304179c -7.58c -4.53c

Converged after 19 iterations.

Dipole moment: (0.898737, 0.518886, -0.744578) |e|*Ang

Energy contributions relative to reference atoms: (reference = -13950194.172252)

Kinetic:       -308.694352
Potential:     +249.989875
External:        +0.000000
XC:             -25.453355
Entropy (-ST):   -0.350374
Local:           +3.028840
--------------------------
Free energy:    -81.479366
Extrapolated:   -81.304179

Showing only first 2 kpts
 Kpt  Band  Eigenvalues  Occupancy
  0   149     -0.11392    1.99772
  0   150      0.06260    1.98675
  0   151      0.25489    1.91275
  0   152      0.43491    1.56740

  1   149     -0.58447    1.99998
  1   150     -0.44551    1.99992
  1   151      0.28104    1.88813
  1   152      0.39872    1.67757


Fermi level: 0.56364

No gap

Forces in eV/Ang:
  0 Au    0.00990    0.00572   -0.03267
  1 Au   -0.00000   -0.03054    0.04225
  2 Au   -0.00990    0.00572   -0.03267
  3 Au   -0.02645    0.01527    0.04225
  4 Au    0.02645    0.01527    0.04225
  5 Au   -0.00000   -0.03138    0.11560
  6 Au    0.00000   -0.01143   -0.03267
  7 Au   -0.02717    0.01569    0.11560
  8 Au    0.02717    0.01569    0.11560
  9 Au    0.00000    0.53572   -0.08672
 10 Au   -0.02918   -0.01684   -0.09017
 11 Au    0.02918   -0.01684   -0.09017
 12 Au   -0.04656    0.02688   -0.30386
 13 Au   -0.00000    0.03369   -0.09017
 14 Au    0.04656    0.02688   -0.30386
 15 Au   -0.46395   -0.26786   -0.08672
 16 Au    0.46395   -0.26786   -0.08672
 17 Au    0.00000   -0.05377   -0.30386
 18 Au   -0.00000    0.00000    2.56251
 19 Au   -0.64592   -0.00136    0.07701
 20 Au    0.64592   -0.00136    0.07701
 21 Au   -0.32414   -0.55870    0.07701
 22 Au    0.00000    0.00000    0.07837
 23 Au    0.32414   -0.55870    0.07701
 24 Au    0.32178    0.56006    0.07701
 25 Au   -0.32178    0.56006    0.07701
 26 Au   -0.00000    0.00000    0.16574
 27 O     0.00000    0.00000   -2.20850

System changes: positions 

Initializing position-dependent things.

Density initialized from wave functions
                                              
                                              
                                              
                                              
                                              
                                              
                                              
                  Au     Au     Au            
       O                                      
             Au    AAu    AAu    Au           
              Au     Au                       
       Au     Au     Au     Au                
        Au     Au     AAu    Au     Au        
                                              
                 Au     Au     Au             
                                              
           Au      Au     Au                  
                                              
                                              
                                              
                                              

Positions:
   0 Au     1.482239    0.855771    5.914329    ( 0.0000,  0.0000,  0.0000)
   1 Au     4.430378    0.856669    5.989215    ( 0.0000,  0.0000,  0.0000)
   2 Au     7.378516    0.855771    5.914329    ( 0.0000,  0.0000,  0.0000)
   3 Au     2.957086    3.408485    5.989215    ( 0.0000,  0.0000,  0.0000)
   4 Au     5.903669    3.408485    5.989215    ( 0.0000,  0.0000,  0.0000)
   5 Au     8.860755    3.404986    6.004989    ( 0.0000,  0.0000,  0.0000)
   6 Au     4.430378    5.962096    5.914329    ( 0.0000,  0.0000,  0.0000)
   7 Au     7.379182    5.971146    6.004989    ( 0.0000,  0.0000,  0.0000)
   8 Au    10.342328    5.971146    6.004989    ( 0.0000,  0.0000,  0.0000)
   9 Au    -0.000000    1.668094    8.464053    ( 0.0000,  0.0000,  0.0000)
  10 Au     2.942289    1.698731    8.408774    ( 0.0000,  0.0000,  0.0000)
  11 Au     5.918466    1.698731    8.408774    ( 0.0000,  0.0000,  0.0000)
  12 Au     1.463477    4.270820    8.384560    ( 0.0000,  0.0000,  0.0000)
  13 Au     4.430378    4.276176    8.408774    ( 0.0000,  0.0000,  0.0000)
  14 Au     7.397278    4.270820    8.384560    ( 0.0000,  0.0000,  0.0000)
  15 Au     2.985766    6.839592    8.464053    ( 0.0000,  0.0000,  0.0000)
  16 Au     5.874989    6.839592    8.464053    ( 0.0000,  0.0000,  0.0000)
  17 Au     8.860755    6.805637    8.384560    ( 0.0000,  0.0000,  0.0000)
  18 Au    -0.000000    0.000000   10.783298    ( 0.0000,  0.0000,  0.0000)
  19 Au     2.993560    0.006626   10.849231    ( 0.0000,  0.0000,  0.0000)
  20 Au     5.867195    0.006626   10.849231    ( 0.0000,  0.0000,  0.0000)
  21 Au     1.502518    2.589187   10.849231    ( 0.0000,  0.0000,  0.0000)
  22 Au     4.430378    2.557880   10.855577    ( 0.0000,  0.0000,  0.0000)
  23 Au     7.358237    2.589187   10.849231    ( 0.0000,  0.0000,  0.0000)
  24 Au     2.939335    5.077827   10.849231    ( 0.0000,  0.0000,  0.0000)
  25 Au     5.921420    5.077827   10.849231    ( 0.0000,  0.0000,  0.0000)
  26 Au     8.860755    5.115759   10.855557    ( 0.0000,  0.0000,  0.0000)
  27 O      0.000000    0.000000   12.821832    ( 0.0000,  0.0000,  0.0000)

Unit cell:
           periodic     x           y           z      points  spacing
  1. axis:    yes    8.860755    0.000000    0.000000    45     0.1705
  2. axis:    yes    4.430378    7.673639    0.000000    45     0.1705
  3. axis:    no     0.000000    0.000000   16.823184    84     0.2003

  Lengths:   8.860755   8.860755  16.823184
  Angles:   90.000000  90.000000  60.000000

Effective grid spacing dv^(1/3) = 0.1888

     iter     time        total  log10-change:
                         energy  eigst   dens
iter:   1 10:01:50   -86.003591  -1.38
iter:   2 10:01:56   -83.128147  -2.03  -1.66
iter:   3 10:02:02   -82.225344  -3.07  -1.92
iter:   4 10:02:07   -81.848054  -2.99  -2.08
iter:   5 10:02:13   -81.768144  -2.48  -2.29
iter:   6 10:02:18   -81.725392c -3.51  -2.53
iter:   7 10:02:24   -81.691245c -4.07  -2.66
iter:   8 10:02:29   -81.698817c -3.76  -2.84
iter:   9 10:02:35   -81.691358c -4.59  -2.92
iter:  10 10:02:40   -81.683774c -4.72  -3.00
iter:  11 10:02:46   -81.686352c -4.48  -3.15
iter:  12 10:02:52   -81.684963c -5.43  -3.46
iter:  13 10:02:57   -81.685178c -5.32  -3.54
iter:  14 10:03:03   -81.685080c -5.74  -3.70
iter:  15 10:03:08   -81.685024c -6.40  -3.77
iter:  16 10:03:14   -81.684928c -6.09  -3.82
iter:  17 10:03:19   -81.685057c -6.76  -3.96
iter:  18 10:03:25   -81.684901c -7.05  -4.16c
iter:  19 10:03:30   -81.684980c -6.67  -4.30c
iter:  20 10:03:36   -81.684962c -7.30  -4.48c
iter:  21 10:03:41   -81.684945c -6.90  -4.59c
iter:  22 10:03:47   -81.684939c -8.13c -4.98c

Converged after 22 iterations.

Dipole moment: (-0.338582, -0.195480, -0.671167) |e|*Ang

Energy contributions relative to reference atoms: (reference = -13950194.172252)

Kinetic:       -320.074003
Potential:     +259.821179
External:        +0.000000
XC:             -24.284255
Entropy (-ST):   -0.332911
Local:           +3.018596
--------------------------
Free energy:    -81.851395
Extrapolated:   -81.684939

Showing only first 2 kpts
 Kpt  Band  Eigenvalues  Occupancy
  0   149     -0.12339    1.99826
  0   150      0.07566    1.98732
  0   151      0.27060    1.91421
  0   152      0.43827    1.61331

  1   149     -0.58875    1.99998
  1   150     -0.42964    1.99992
  1   151      0.30211    1.88427
  1   152      0.38949    1.74345


Fermi level: 0.58112

No gap

Forces in eV/Ang:
  0 Au   -0.07663   -0.04424    0.13461
  1 Au    0.00000    0.01721    0.00664
  2 Au    0.07663   -0.04424    0.13461
  3 Au    0.01491   -0.00861    0.00664
  4 Au   -0.01491   -0.00861    0.00664
  5 Au    0.00000   -0.12245   -0.02298
  6 Au    0.00000    0.08848    0.13461
  7 Au   -0.10605    0.06123   -0.02298
  8 Au    0.10605    0.06123   -0.02298
  9 Au    0.00000    0.20823   -0.29133
 10 Au    0.03069    0.01772   -0.00489
 11 Au   -0.03069    0.01772   -0.00489
 12 Au    0.08880   -0.05127    0.16632
 13 Au    0.00000   -0.03544   -0.00489
 14 Au   -0.08880   -0.05127    0.16632
 15 Au   -0.18033   -0.10411   -0.29133
 16 Au    0.18033   -0.10411   -0.29133
 17 Au    0.00000    0.10254    0.16632
 18 Au    0.00000    0.00000    1.61866
 19 Au    0.01753   -0.02335   -0.03476
 20 Au   -0.01753   -0.02335   -0.03476
 21 Au   -0.01146    0.02686   -0.03476
 22 Au    0.00000    0.00000   -0.06989
 23 Au    0.01146    0.02686   -0.03476
 24 Au   -0.02899   -0.00351   -0.03476
 25 Au    0.02899   -0.00351   -0.03476
 26 Au    0.00000    0.00000   -0.08394
 27 O     0.00000    0.00000   -1.23511

System changes: positions 

Initializing position-dependent things.

Density initialized from wave functions
                                              
                                              
                                              
                                              
                                              
                                              
                                              
                  Au     Au     Au            
       O                                      
            Au     AAu    AAu    Au           
       Au     Au      Au                      
             Au      Au     Au                
        Au     Au     AAu    Au     Au        
                                              
                 Au     Au     Au             
                                              
           Au      Au     Au                  
                                              
                                              
                                              
                                              

Positions:
   0 Au     1.482098    0.855690    5.895262    ( 0.0000,  0.0000,  0.0000)
   1 Au     4.430378    0.851380    5.995243    ( 0.0000,  0.0000,  0.0000)
   2 Au     7.378657    0.855690    5.895262    ( 0.0000,  0.0000,  0.0000)
   3 Au     2.952506    3.411129    5.995243    ( 0.0000,  0.0000,  0.0000)
   4 Au     5.908249    3.411129    5.995243    ( 0.0000,  0.0000,  0.0000)
   5 Au     8.860755    3.395292    6.026658    ( 0.0000,  0.0000,  0.0000)
   6 Au     4.430378    5.962259    5.895262    ( 0.0000,  0.0000,  0.0000)
   7 Au     7.370787    5.975993    6.026658    ( 0.0000,  0.0000,  0.0000)
   8 Au    10.350723    5.975993    6.026658    ( 0.0000,  0.0000,  0.0000)
   9 Au    -0.000000    1.721961    8.529028    ( 0.0000,  0.0000,  0.0000)
  10 Au     2.931813    1.692683    8.388570    ( 0.0000,  0.0000,  0.0000)
  11 Au     5.928942    1.692683    8.388570    ( 0.0000,  0.0000,  0.0000)
  12 Au     1.452422    4.277203    8.315517    ( 0.0000,  0.0000,  0.0000)
  13 Au     4.430378    4.288273    8.388570    ( 0.0000,  0.0000,  0.0000)
  14 Au     7.408333    4.277203    8.315517    ( 0.0000,  0.0000,  0.0000)
  15 Au     2.939116    6.812659    8.529028    ( 0.0000,  0.0000,  0.0000)
  16 Au     5.921639    6.812659    8.529028    ( 0.0000,  0.0000,  0.0000)
  17 Au     8.860755    6.792872    8.315517    ( 0.0000,  0.0000,  0.0000)
  18 Au    -0.000000    0.000000   10.837511    ( 0.0000,  0.0000,  0.0000)
  19 Au     2.847386    0.007015   10.862562    ( 0.0000,  0.0000,  0.0000)
  20 Au     6.013369    0.007015   10.862562    ( 0.0000,  0.0000,  0.0000)
  21 Au     1.429768    2.462401   10.862562    ( 0.0000,  0.0000,  0.0000)
  22 Au     4.430378    2.557880   10.875413    ( 0.0000,  0.0000,  0.0000)
  23 Au     7.430987    2.462401   10.862562    ( 0.0000,  0.0000,  0.0000)
  24 Au     3.012759    5.204223   10.862562    ( 0.0000,  0.0000,  0.0000)
  25 Au     5.847996    5.204223   10.862562    ( 0.0000,  0.0000,  0.0000)
  26 Au     8.860755    5.115759   10.889971    ( 0.0000,  0.0000,  0.0000)
  27 O      0.000000    0.000000   12.678301    ( 0.0000,  0.0000,  0.0000)

Unit cell:
           periodic     x           y           z      points  spacing
  1. axis:    yes    8.860755    0.000000    0.000000    45     0.1705
  2. axis:    yes    4.430378    7.673639    0.000000    45     0.1705
  3. axis:    no     0.000000    0.000000   16.823184    84     0.2003

  Lengths:   8.860755   8.860755  16.823184
  Angles:   90.000000  90.000000  60.000000

Effective grid spacing dv^(1/3) = 0.1888

     iter     time        total  log10-change:
                         energy  eigst   dens
iter:   1 10:03:55   -93.265648  -0.88
iter:   2 10:04:00   -83.035418  -1.88  -1.51
iter:   3 10:04:06   -81.851139  -2.47  -1.78
iter:   4 10:04:11   -81.046505  -2.10  -1.93
iter:   5 10:04:17   -80.919437  -2.26  -2.21
iter:   6 10:04:22   -80.896291c -3.62  -2.51
iter:   7 10:04:28   -80.847279c -3.20  -2.55
iter:   8 10:04:33   -80.850340c -3.88  -2.71
iter:   9 10:04:39   -80.851021c -3.67  -2.79
iter:  10 10:04:44   -80.843434c -3.82  -2.89
iter:  11 10:04:50   -80.843260c -4.54  -3.17
iter:  12 10:04:55   -80.842514c -5.15  -3.26
iter:  13 10:05:01   -80.841842c -4.72  -3.31
iter:  14 10:05:07   -80.841579c -5.39  -3.48
iter:  15 10:05:12   -80.841605c -6.39  -3.65
iter:  16 10:05:18   -80.841668c -5.83  -3.68
iter:  17 10:05:23   -80.841422c -5.86  -3.86
iter:  18 10:05:29   -80.841150c -5.96  -4.07c
iter:  19 10:05:34   -80.841169c -6.67  -4.29c
iter:  20 10:05:40   -80.841126c -7.43c -4.41c

Converged after 20 iterations.

Dipole moment: (-2.048621, -1.182772, -0.517808) |e|*Ang

Energy contributions relative to reference atoms: (reference = -13950194.172252)

Kinetic:       -296.245060
Potential:     +239.409696
External:        +0.000000
XC:             -26.941885
Entropy (-ST):   -0.314163
Local:           +3.093204
--------------------------
Free energy:    -80.998208
Extrapolated:   -80.841126

Showing only first 2 kpts
 Kpt  Band  Eigenvalues  Occupancy
  0   149     -0.10203    1.99883
  0   150      0.13769    1.98723
  0   151      0.35475    1.89334
  0   152      0.46306    1.71467

  1   149     -0.53199    1.99998
  1   150     -0.33862    1.99989
  1   151      0.35502    1.89307
  1   152      0.38132    1.86310


Fermi level: 0.64240

No gap

Forces in eV/Ang:
  0 Au   -0.14304   -0.08258    0.21520
  1 Au    0.00000    0.11727   -0.11072
  2 Au    0.14304   -0.08258    0.21520
  3 Au    0.10156   -0.05863   -0.11072
  4 Au   -0.10156   -0.05863   -0.11072
  5 Au    0.00000   -0.27023   -0.32514
  6 Au    0.00000    0.16516    0.21520
  7 Au   -0.23403    0.13512   -0.32514
  8 Au    0.23403    0.13512   -0.32514
  9 Au    0.00000   -0.26770   -0.82856
 10 Au    0.10810    0.06241    0.13905
 11 Au   -0.10810    0.06241    0.13905
 12 Au    0.23178   -0.13382    0.75695
 13 Au   -0.00000   -0.12483    0.13905
 14 Au   -0.23178   -0.13382    0.75695
 15 Au    0.23184    0.13385   -0.82856
 16 Au   -0.23184    0.13385   -0.82856
 17 Au    0.00000    0.26764    0.75695
 18 Au   -0.00000   -0.00000   -2.38646
 19 Au    1.12811    0.03285    0.04757
 20 Au   -1.12811    0.03285    0.04757
 21 Au    0.59250    0.96055    0.04757
 22 Au    0.00000    0.00000   -0.25666
 23 Au   -0.59250    0.96055    0.04757
 24 Au   -0.53561   -0.99340    0.04757
 25 Au    0.53561   -0.99340    0.04757
 26 Au   -0.00000    0.00000   -0.37928
 27 O     0.00000    0.00000    3.15472

System changes: positions 

Initializing position-dependent things.

Density initialized from wave functions
                                              
                                              
                                              
                                              
                                              
                                              
                                              
                  Au     Au     Au            
       O                                      
            Au     AAu    AAu    Au           
       Au     Au      Au                      
              Au     Au     Au                
        Au     Au     AAu    Au     Au        
                                              
                 Au     Au     Au             
                                              
           Au      Au     Au                  
                                              
                                              
                                              
                                              

Positions:
   0 Au     1.478331    0.853515    5.961654    ( 0.0000,  0.0000,  0.0000)
   1 Au     4.430378    0.854896    5.994795    ( 0.0000,  0.0000,  0.0000)
   2 Au     7.382424    0.853515    5.961654    ( 0.0000,  0.0000,  0.0000)
   3 Au     2.955550    3.409372    5.994795    ( 0.0000,  0.0000,  0.0000)
   4 Au     5.905205    3.409372    5.994795    ( 0.0000,  0.0000,  0.0000)
   5 Au     8.860755    3.406332    6.001615    ( 0.0000,  0.0000,  0.0000)
   6 Au     4.430378    5.966610    5.961654    ( 0.0000,  0.0000,  0.0000)
   7 Au     7.380348    5.970473    6.001615    ( 0.0000,  0.0000,  0.0000)
   8 Au    10.341162    5.970473    6.001615    ( 0.0000,  0.0000,  0.0000)
   9 Au    -0.000000    1.687419    8.432410    ( 0.0000,  0.0000,  0.0000)
  10 Au     2.948722    1.702446    8.410497    ( 0.0000,  0.0000,  0.0000)
  11 Au     5.912033    1.702446    8.410497    ( 0.0000,  0.0000,  0.0000)
  12 Au     1.471912    4.265950    8.402402    ( 0.0000,  0.0000,  0.0000)
  13 Au     4.430378    4.268748    8.410497    ( 0.0000,  0.0000,  0.0000)
  14 Au     7.388843    4.265950    8.402402    ( 0.0000,  0.0000,  0.0000)
  15 Au     2.969030    6.829929    8.432410    ( 0.0000,  0.0000,  0.0000)
  16 Au     5.891725    6.829929    8.432410    ( 0.0000,  0.0000,  0.0000)
  17 Au     8.860755    6.815377    8.402402    ( 0.0000,  0.0000,  0.0000)
  18 Au    -0.000000    0.000000   10.843017    ( 0.0000,  0.0000,  0.0000)
  19 Au     2.977235    0.002719   10.834531    ( 0.0000,  0.0000,  0.0000)
  20 Au     5.883520    0.002719   10.834531    ( 0.0000,  0.0000,  0.0000)
  21 Au     1.490972    2.577002   10.834531    ( 0.0000,  0.0000,  0.0000)
  22 Au     4.430378    2.557880   10.837199    ( 0.0000,  0.0000,  0.0000)
  23 Au     7.369783    2.577002   10.834531    ( 0.0000,  0.0000,  0.0000)
  24 Au     2.944115    5.093918   10.834531    ( 0.0000,  0.0000,  0.0000)
  25 Au     5.916640    5.093918   10.834531    ( 0.0000,  0.0000,  0.0000)
  26 Au     8.860755    5.115759   10.836739    ( 0.0000,  0.0000,  0.0000)
  27 O      0.000000    0.000000   12.789368    ( 0.0000,  0.0000,  0.0000)

Unit cell:
           periodic     x           y           z      points  spacing
  1. axis:    yes    8.860755    0.000000    0.000000    45     0.1705
  2. axis:    yes    4.430378    7.673639    0.000000    45     0.1705
  3. axis:    no     0.000000    0.000000   16.823184    84     0.2003

  Lengths:   8.860755   8.860755  16.823184
  Angles:   90.000000  90.000000  60.000000

Effective grid spacing dv^(1/3) = 0.1888

     iter     time        total  log10-change:
                         energy  eigst   dens
iter:   1 10:05:47   -88.496748  -0.82
iter:   2 10:05:53   -84.844192  -2.38  -1.64
iter:   3 10:05:58   -83.760938  -1.63  -1.76
iter:   4 10:06:04   -83.299710  -3.20  -1.78
iter:   5 10:06:09   -82.509260  -3.74  -1.82
iter:   6 10:06:15   -81.926779  -2.25  -1.93
iter:   7 10:06:20   -81.849684  -3.32  -2.41
iter:   8 10:06:26   -81.825633c -4.25  -2.54
iter:   9 10:06:31   -81.809634c -3.52  -2.60
iter:  10 10:06:37   -81.810204c -4.18  -2.79
iter:  11 10:06:43   -81.799677c -4.21  -2.90
iter:  12 10:06:48   -81.797900c -4.94  -3.12
iter:  13 10:06:54   -81.796513c -4.70  -3.22
iter:  14 10:06:59   -81.796836c -5.22  -3.55
iter:  15 10:07:05   -81.796874c -5.82  -3.65
iter:  16 10:07:10   -81.796680c -5.87  -3.77
iter:  17 10:07:16   -81.796868c -6.32  -3.88
iter:  18 10:07:21   -81.796581c -6.45  -3.95
iter:  19 10:07:27   -81.796617c -6.84  -4.17c
iter:  20 10:07:32   -81.796638c -7.03  -4.27c
iter:  21 10:07:38   -81.796713c -6.72  -4.36c
iter:  22 10:07:43   -81.796693c -7.58c -4.55c

Converged after 22 iterations.

Dipole moment: (-0.121938, -0.070401, -0.629841) |e|*Ang

Energy contributions relative to reference atoms: (reference = -13950194.172252)

Kinetic:       -313.982333
Potential:     +254.697248
External:        +0.000000
XC:             -25.404707
Entropy (-ST):   -0.327006
Local:           +3.056602
--------------------------
Free energy:    -81.960196
Extrapolated:   -81.796693

Showing only first 2 kpts
 Kpt  Band  Eigenvalues  Occupancy
  0   149     -0.12180    1.99867
  0   150      0.09140    1.98882
  0   151      0.31811    1.89704
  0   152      0.46179    1.62819

  1   149     -0.57788    1.99999
  1   150     -0.40630    1.99992
  1   151      0.34420    1.86836
  1   152      0.40422    1.77242


Fermi level: 0.60948

No gap

Forces in eV/Ang:
  0 Au   -0.02096   -0.01210    0.00810
  1 Au    0.00000    0.00785   -0.01184
  2 Au    0.02096   -0.01210    0.00810
  3 Au    0.00680   -0.00393   -0.01184
  4 Au   -0.00680   -0.00393   -0.01184
  5 Au    0.00000   -0.03085   -0.01029
  6 Au    0.00000    0.02421    0.00810
  7 Au   -0.02672    0.01543   -0.01029
  8 Au    0.02672    0.01543   -0.01029
  9 Au   -0.00000   -0.03655   -0.04407
 10 Au    0.00418    0.00241    0.00132
 11 Au   -0.00418    0.00241    0.00132
 12 Au    0.01958   -0.01130    0.05950
 13 Au   -0.00000   -0.00482    0.00132
 14 Au   -0.01958   -0.01130    0.05950
 15 Au    0.03166    0.01828   -0.04407
 16 Au   -0.03166    0.01828   -0.04407
 17 Au    0.00000    0.02260    0.05950
 18 Au    0.00000    0.00000   -0.01804
 19 Au    0.09058   -0.00563   -0.00722
 20 Au   -0.09058   -0.00563   -0.00722
 21 Au    0.04042    0.08126   -0.00722
 22 Au   -0.00000    0.00000   -0.01561
 23 Au   -0.04042    0.08126   -0.00722
 24 Au   -0.05016   -0.07563   -0.00722
 25 Au    0.05016   -0.07563   -0.00722
 26 Au    0.00000    0.00000   -0.02476
 27 O    -0.00000    0.00000    0.14227

System changes: positions 

Initializing position-dependent things.

Density initialized from wave functions
                                              
                                              
                                              
                                              
                                              
                                              
                                              
                  Au     Au     Au            
       O                                      
             Au    AAu    AAu    Au           
       Au     Au      Au                      
              Au     Au     Au                
        Au     Au     AAu    Au     Au        
                                              
                 Au     Au     Au             
                                              
           Au      Au     Au                  
                                              
                                              
                                              
                                              

Positions:
   0 Au     1.479670    0.854288    5.974225    ( 0.0000,  0.0000,  0.0000)
   1 Au     4.430378    0.854471    5.995513    ( 0.0000,  0.0000,  0.0000)
   2 Au     7.381085    0.854288    5.974225    ( 0.0000,  0.0000,  0.0000)
   3 Au     2.955182    3.409584    5.995513    ( 0.0000,  0.0000,  0.0000)
   4 Au     5.905573    3.409584    5.995513    ( 0.0000,  0.0000,  0.0000)
   5 Au     8.860755    3.412536    5.998280    ( 0.0000,  0.0000,  0.0000)
   6 Au     4.430378    5.965063    5.974225    ( 0.0000,  0.0000,  0.0000)
   7 Au     7.385720    5.967371    5.998280    ( 0.0000,  0.0000,  0.0000)
   8 Au    10.335790    5.967371    5.998280    ( 0.0000,  0.0000,  0.0000)
   9 Au    -0.000000    1.677619    8.427132    ( 0.0000,  0.0000,  0.0000)
  10 Au     2.951163    1.703855    8.414203    ( 0.0000,  0.0000,  0.0000)
  11 Au     5.909592    1.703855    8.414203    ( 0.0000,  0.0000,  0.0000)
  12 Au     1.472900    4.265380    8.411633    ( 0.0000,  0.0000,  0.0000)
  13 Au     4.430378    4.265929    8.414203    ( 0.0000,  0.0000,  0.0000)
  14 Au     7.387855    4.265380    8.411633    ( 0.0000,  0.0000,  0.0000)
  15 Au     2.977517    6.834830    8.427132    ( 0.0000,  0.0000,  0.0000)
  16 Au     5.883238    6.834830    8.427132    ( 0.0000,  0.0000,  0.0000)
  17 Au     8.860755    6.816518    8.411633    ( 0.0000,  0.0000,  0.0000)
  18 Au    -0.000000   -0.000000   10.838771    ( 0.0000,  0.0000,  0.0000)
  19 Au     2.989960    0.002474   10.829405    ( 0.0000,  0.0000,  0.0000)
  20 Au     5.870795    0.002474   10.829405    ( 0.0000,  0.0000,  0.0000)
  21 Au     1.497122    2.588144   10.829405    ( 0.0000,  0.0000,  0.0000)
  22 Au     4.430378    2.557880   10.831129    ( 0.0000,  0.0000,  0.0000)
  23 Au     7.363633    2.588144   10.829405    ( 0.0000,  0.0000,  0.0000)
  24 Au     2.937540    5.083021   10.829405    ( 0.0000,  0.0000,  0.0000)
  25 Au     5.923215    5.083021   10.829405    ( 0.0000,  0.0000,  0.0000)
  26 Au     8.860755    5.115759   10.828729    ( 0.0000,  0.0000,  0.0000)
  27 O      0.000000   -0.000000   12.790502    ( 0.0000,  0.0000,  0.0000)

Unit cell:
           periodic     x           y           z      points  spacing
  1. axis:    yes    8.860755    0.000000    0.000000    45     0.1705
  2. axis:    yes    4.430378    7.673639    0.000000    45     0.1705
  3. axis:    no     0.000000    0.000000   16.823184    84     0.2003

  Lengths:   8.860755   8.860755  16.823184
  Angles:   90.000000  90.000000  60.000000

Effective grid spacing dv^(1/3) = 0.1888

     iter     time        total  log10-change:
                         energy  eigst   dens
iter:   1 10:07:51   -81.889945  -2.81
iter:   2 10:07:56   -81.818224  -4.04  -2.51
iter:   3 10:08:02   -81.810370c -4.49  -2.73
iter:   4 10:08:08   -81.797526c -4.10  -2.88
iter:   5 10:08:13   -81.799905c -4.34  -3.09
iter:   6 10:08:19   -81.796115c -5.00  -3.32
iter:   7 10:08:24   -81.797347c -5.16  -3.41
iter:   8 10:08:30   -81.797271c -6.24  -3.65
iter:   9 10:08:35   -81.797264c -5.61  -3.70
iter:  10 10:08:41   -81.797335c -6.26  -3.99
iter:  11 10:08:46   -81.797327c -7.16  -4.22c
iter:  12 10:08:52   -81.797346c -6.24  -4.28c
iter:  13 10:08:57   -81.797308c -7.04  -4.45c
iter:  14 10:09:03   -81.797328c -7.69c -4.62c

Converged after 14 iterations.

Dipole moment: (0.180215, 0.104047, -0.631799) |e|*Ang

Energy contributions relative to reference atoms: (reference = -13950194.172252)

Kinetic:       -311.760126
Potential:     +252.790806
External:        +0.000000
XC:             -25.722811
Entropy (-ST):   -0.328366
Local:           +3.058986
--------------------------
Free energy:    -81.961511
Extrapolated:   -81.797328

Showing only first 2 kpts
 Kpt  Band  Eigenvalues  Occupancy
  0   149     -0.11927    1.99865
  0   150      0.08973    1.98911
  0   151      0.31980    1.89636
  0   152      0.46697    1.61537

  1   149     -0.57529    1.99999
  1   150     -0.40806    1.99992
  1   151      0.34671    1.86649
  1   152      0.41055    1.76144


Fermi level: 0.61047

No gap

Forces in eV/Ang:
  0 Au   -0.01557   -0.00899   -0.03252
  1 Au   -0.00000    0.00288    0.00085
  2 Au    0.01557   -0.00899   -0.03252
  3 Au    0.00250   -0.00144    0.00085
  4 Au   -0.00250   -0.00144    0.00085
  5 Au    0.00000   -0.05187    0.02356
  6 Au   -0.00000    0.01797   -0.03252
  7 Au   -0.04492    0.02593    0.02356
  8 Au    0.04492    0.02593    0.02356
  9 Au    0.00000    0.06530   -0.00140
 10 Au   -0.00872   -0.00503   -0.02406
 11 Au    0.00872   -0.00503   -0.02406
 12 Au    0.00563   -0.00325   -0.03387
 13 Au   -0.00000    0.01007   -0.02406
 14 Au   -0.00563   -0.00325   -0.03387
 15 Au   -0.05655   -0.03265   -0.00140
 16 Au    0.05655   -0.03265   -0.00140
 17 Au    0.00000    0.00650   -0.03387
 18 Au    0.00000    0.00000    0.11204
 19 Au   -0.02201   -0.00658    0.00903
 20 Au    0.02201   -0.00658    0.00903
 21 Au   -0.01670   -0.01577    0.00903
 22 Au   -0.00000    0.00000    0.02413
 23 Au    0.01670   -0.01577    0.00903
 24 Au    0.00531    0.02235    0.00903
 25 Au   -0.00531    0.02235    0.00903
 26 Au    0.00000   -0.00000    0.03340
 27 O     0.00000    0.00000   -0.02787

System changes: positions 

Initializing position-dependent things.

Density initialized from wave functions
                                              
                                              
                                              
                                              
                                              
                                              
                                              
                                              
       O          Au     Au     Au            
             Au     Au     Au                 
                   Au     Au     Au           
       Au     Au     Au     Au                
                                              
        Au     Au     AAu    Au     Au        
                                              
                 Au     Au     Au             
                                              
           Au     Au      Au                  
                                              
                                              
                                              
                                              

Positions:
   0 Au     1.454534    0.839775    5.906508    ( 0.0000,  0.0000,  0.0000)
   1 Au     4.430378    0.866035    5.982491    ( 0.0000,  0.0000,  0.0000)
   2 Au     7.406221    0.839775    5.906508    ( 0.0000,  0.0000,  0.0000)
   3 Au     2.965197    3.403802    5.982491    ( 0.0000,  0.0000,  0.0000)
[...]
iter:   3 10:19:37   -82.372777  -3.01  -1.93
iter:   4 10:19:42   -81.921404  -2.62  -2.05
iter:   5 10:19:48   -81.799728  -2.51  -2.27
iter:   6 10:19:53   -81.772676c -3.84  -2.51
iter:   7 10:19:59   -81.755942c -3.53  -2.61
iter:   8 10:20:04   -81.759941c -3.95  -2.84
iter:   9 10:20:10   -81.757181c -4.44  -2.97
iter:  10 10:20:16   -81.754351c -4.41  -3.07
iter:  11 10:20:21   -81.752418c -4.50  -3.22
iter:  12 10:20:27   -81.752045c -5.39  -3.43
iter:  13 10:20:32   -81.751610c -5.25  -3.51
iter:  14 10:20:38   -81.751670c -5.22  -3.64
iter:  15 10:20:43   -81.751569c -5.79  -3.78
iter:  16 10:20:49   -81.751563c -6.59  -3.99
iter:  17 10:20:54   -81.751494c -6.35  -4.10c
iter:  18 10:21:00   -81.751519c -7.15  -4.37c
iter:  19 10:21:05   -81.751539c -7.55c -4.41c

Converged after 19 iterations.

Dipole moment: (-1.536258, -0.886959, -0.669944) |e|*Ang

Energy contributions relative to reference atoms: (reference = -13950194.172252)

Kinetic:       -314.134074
Potential:     +254.785055
External:        +0.000000
XC:             -25.298342
Entropy (-ST):   -0.326709
Local:           +3.059177
--------------------------
Free energy:    -81.914893
Extrapolated:   -81.751539

Showing only first 2 kpts
 Kpt  Band  Eigenvalues  Occupancy
  0   149     -0.11708    1.99844
  0   150      0.08063    1.98879
  0   151      0.30390    1.90009
  0   152      0.45413    1.61785

  1   149     -0.57890    1.99998
  1   150     -0.41320    1.99992
  1   151      0.32883    1.87359
  1   152      0.39722    1.76415


Fermi level: 0.59844

No gap

Forces in eV/Ang:
  0 Au   -0.07411   -0.04279    0.07151
  1 Au   -0.00000    0.02287    0.04531
  2 Au    0.07411   -0.04279    0.07151
  3 Au    0.01980   -0.01143    0.04531
  4 Au   -0.01980   -0.01143    0.04531
  5 Au   -0.00000   -0.20930   -0.05169
  6 Au    0.00000    0.08557    0.07151
  7 Au   -0.18126    0.10465   -0.05169
  8 Au    0.18126    0.10465   -0.05169
  9 Au    0.00000   -0.07781    0.02327
 10 Au   -0.17626   -0.10177   -0.12484
 11 Au    0.17626   -0.10177   -0.12484
 12 Au    0.15125   -0.08732   -0.02997
 13 Au    0.00000    0.20353   -0.12484
 14 Au   -0.15125   -0.08732   -0.02997
 15 Au    0.06739    0.03891    0.02327
 16 Au   -0.06739    0.03891    0.02327
 17 Au    0.00000    0.17465   -0.02997
 18 Au    0.00000    0.00000   -0.12912
 19 Au    0.03167   -0.06344    0.02344
 20 Au   -0.03167   -0.06344    0.02344
 21 Au   -0.03911    0.05915    0.02344
 22 Au    0.00000    0.00000    0.21073
 23 Au    0.03911    0.05915    0.02344
 24 Au   -0.07077    0.00429    0.02344
 25 Au    0.07077    0.00429    0.02344
 26 Au   -0.00000    0.00000    0.09782
 27 O     0.00000    0.00000   -0.15242

System changes: positions 

Initializing position-dependent things.

Density initialized from wave functions
                                              
                                              
                                              
                                              
                                              
                                              
                                              
                  Au     Au     Au            
       O                                      
            Au     AAu    AAu    Au           
       Au     Au      Au                      
              Au     Au     Au                
        Au     Au     AAu    Au     Au        
                                              
                 Au     Au     Au             
                                              
           Au      Au     Au                  
                                              
                                              
                                              
                                              

Positions:
   0 Au     1.475768    0.852035    5.960077    ( 0.0000,  0.0000,  0.0000)
   1 Au     4.430378    0.854986    5.991807    ( 0.0000,  0.0000,  0.0000)
   2 Au     7.384987    0.852035    5.960077    ( 0.0000,  0.0000,  0.0000)
   3 Au     2.955628    3.409327    5.991807    ( 0.0000,  0.0000,  0.0000)
   4 Au     5.905127    3.409327    5.991807    ( 0.0000,  0.0000,  0.0000)
   5 Au     8.860755    3.403091    6.005463    ( 0.0000,  0.0000,  0.0000)
   6 Au     4.430378    5.969569    5.960077    ( 0.0000,  0.0000,  0.0000)
   7 Au     7.377541    5.972094    6.005463    ( 0.0000,  0.0000,  0.0000)
   8 Au    10.343970    5.972094    6.005463    ( 0.0000,  0.0000,  0.0000)
   9 Au    -0.000000    1.679111    8.429450    ( 0.0000,  0.0000,  0.0000)
  10 Au     2.949387    1.702830    8.407325    ( 0.0000,  0.0000,  0.0000)
  11 Au     5.911368    1.702830    8.407325    ( 0.0000,  0.0000,  0.0000)
  12 Au     1.473147    4.265237    8.408021    ( 0.0000,  0.0000,  0.0000)
  13 Au     4.430378    4.267980    8.407325    ( 0.0000,  0.0000,  0.0000)
  14 Au     7.387608    4.265237    8.408021    ( 0.0000,  0.0000,  0.0000)
  15 Au     2.976225    6.834083    8.429450    ( 0.0000,  0.0000,  0.0000)
  16 Au     5.884530    6.834083    8.429450    ( 0.0000,  0.0000,  0.0000)
  17 Au     8.860755    6.816804    8.408021    ( 0.0000,  0.0000,  0.0000)
  18 Au     0.000000    0.000000   10.863903    ( 0.0000,  0.0000,  0.0000)
  19 Au     2.987198    0.001644   10.830347    ( 0.0000,  0.0000,  0.0000)
  20 Au     5.873557    0.001644   10.830347    ( 0.0000,  0.0000,  0.0000)
  21 Au     1.495023    2.586168   10.830347    ( 0.0000,  0.0000,  0.0000)
  22 Au     4.430378    2.557880   10.831569    ( 0.0000,  0.0000,  0.0000)
  23 Au     7.365732    2.586168   10.830347    ( 0.0000,  0.0000,  0.0000)
  24 Au     2.938202    5.085827   10.830347    ( 0.0000,  0.0000,  0.0000)
  25 Au     5.922553    5.085827   10.830347    ( 0.0000,  0.0000,  0.0000)
  26 Au     8.860755    5.115759   10.836642    ( 0.0000,  0.0000,  0.0000)
  27 O      0.000000    0.000000   12.811682    ( 0.0000,  0.0000,  0.0000)

Unit cell:
           periodic     x           y           z      points  spacing
  1. axis:    yes    8.860755    0.000000    0.000000    45     0.1705
  2. axis:    yes    4.430378    7.673639    0.000000    45     0.1705
  3. axis:    no     0.000000    0.000000   16.823184    84     0.2003

  Lengths:   8.860755   8.860755  16.823184
  Angles:   90.000000  90.000000  60.000000

Effective grid spacing dv^(1/3) = 0.1888

     iter     time        total  log10-change:
                         energy  eigst   dens
iter:   1 10:21:13   -82.444880  -1.93
iter:   2 10:21:19   -82.260490  -2.67  -1.98
iter:   3 10:21:24   -81.943177  -3.59  -2.22
iter:   4 10:21:30   -81.830927  -3.44  -2.40
iter:   5 10:21:35   -81.810508c -3.07  -2.57
iter:   6 10:21:41   -81.804942c -4.36  -2.91
iter:   7 10:21:46   -81.803273c -4.41  -3.03
iter:   8 10:21:52   -81.801016c -4.80  -3.20
iter:   9 10:21:58   -81.802031c -5.14  -3.30
iter:  10 10:22:03   -81.801867c -5.37  -3.55
iter:  11 10:22:09   -81.801925c -6.01  -3.73
iter:  12 10:22:14   -81.801690c -5.52  -3.82
iter:  13 10:22:20   -81.801743c -6.61  -4.01c
iter:  14 10:22:25   -81.801810c -6.99  -4.03c
iter:  15 10:22:31   -81.801809c -7.02  -4.09c
iter:  16 10:22:36   -81.801782c -7.30  -4.19c
iter:  17 10:22:42   -81.801763c -7.19  -4.25c
iter:  18 10:22:47   -81.801731c -7.04  -4.33c
iter:  19 10:22:53   -81.801750c -7.87c -4.83c

Converged after 19 iterations.

Dipole moment: (0.205364, 0.118567, -0.640287) |e|*Ang

Energy contributions relative to reference atoms: (reference = -13950194.172252)

Kinetic:       -313.819675
Potential:     +254.541170
External:        +0.000000
XC:             -25.414971
Entropy (-ST):   -0.327662
Local:           +3.055557
--------------------------
Free energy:    -81.965582
Extrapolated:   -81.801750

Showing only first 2 kpts
 Kpt  Band  Eigenvalues  Occupancy
  0   149     -0.12296    1.99866
  0   150      0.08825    1.98899
  0   151      0.31666    1.89695
  0   152      0.46337    1.61864

  1   149     -0.57911    1.99999
  1   150     -0.40993    1.99992
  1   151      0.34332    1.86755
  1   152      0.40671    1.76415


Fermi level: 0.60793

No gap

Forces in eV/Ang:
  0 Au   -0.00076   -0.00044   -0.00319
  1 Au   -0.00000    0.00139   -0.00076
  2 Au    0.00076   -0.00044   -0.00319
  3 Au    0.00121   -0.00070   -0.00076
  4 Au   -0.00121   -0.00070   -0.00076
  5 Au   -0.00000   -0.00739    0.00079
  6 Au    0.00000    0.00088   -0.00319
  7 Au   -0.00640    0.00370    0.00079
  8 Au    0.00640    0.00370    0.00079
  9 Au    0.00000    0.00773    0.01128
 10 Au   -0.00500   -0.00289   -0.00371
 11 Au    0.00500   -0.00289   -0.00371
 12 Au    0.00695   -0.00401    0.00097
 13 Au    0.00000    0.00578   -0.00371
 14 Au   -0.00695   -0.00401    0.00097
 15 Au   -0.00669   -0.00386    0.01128
 16 Au    0.00669   -0.00386    0.01128
 17 Au   -0.00000    0.00803    0.00097
 18 Au   -0.00000    0.00000   -0.00974
 19 Au    0.00241    0.00209   -0.00392
 20 Au   -0.00241    0.00209   -0.00392
 21 Au    0.00302    0.00104   -0.00392
 22 Au    0.00000    0.00000   -0.00210
 23 Au   -0.00302    0.00104   -0.00392
 24 Au    0.00061   -0.00313   -0.00392
 25 Au   -0.00061   -0.00313   -0.00392
 26 Au    0.00000    0.00000   -0.00161
 27 O    -0.00000    0.00000   -0.00225

System changes: positions 

Initializing position-dependent things.

Density initialized from wave functions
                                              
                                              
                                              
                                              
                                              
                                              
                                              
                  Au     Au     Au            
       O                                      
            Au     AAu    AAu    Au           
       Au     Au      Au                      
              Au     Au     Au                
        Au     Au     AAu    Au     Au        
                                              
                 Au     Au     Au             
                                              
           Au      Au     Au                  
                                              
                                              
                                              
                                              

Positions:
   0 Au     1.475448    0.851851    5.959079    ( 0.0000,  0.0000,  0.0000)
   1 Au     4.430378    0.855216    5.991920    ( 0.0000,  0.0000,  0.0000)
   2 Au     7.385307    0.851851    5.959079    ( 0.0000,  0.0000,  0.0000)
   3 Au     2.955827    3.409212    5.991920    ( 0.0000,  0.0000,  0.0000)
   4 Au     5.904928    3.409212    5.991920    ( 0.0000,  0.0000,  0.0000)
   5 Au     8.860755    3.402162    6.005450    ( 0.0000,  0.0000,  0.0000)
   6 Au     4.430378    5.969938    5.959079    ( 0.0000,  0.0000,  0.0000)
   7 Au     7.376736    5.972558    6.005450    ( 0.0000,  0.0000,  0.0000)
   8 Au    10.344774    5.972558    6.005450    ( 0.0000,  0.0000,  0.0000)
   9 Au    -0.000000    1.679330    8.430141    ( 0.0000,  0.0000,  0.0000)
  10 Au     2.948894    1.702544    8.407131    ( 0.0000,  0.0000,  0.0000)
  11 Au     5.911862    1.702544    8.407131    ( 0.0000,  0.0000,  0.0000)
  12 Au     1.473420    4.265080    8.407604    ( 0.0000,  0.0000,  0.0000)
  13 Au     4.430378    4.268550    8.407131    ( 0.0000,  0.0000,  0.0000)
  14 Au     7.387335    4.265080    8.407604    ( 0.0000,  0.0000,  0.0000)
  15 Au     2.976035    6.833974    8.430141    ( 0.0000,  0.0000,  0.0000)
  16 Au     5.884720    6.833974    8.430141    ( 0.0000,  0.0000,  0.0000)
  17 Au     8.860755    6.817118    8.407604    ( 0.0000,  0.0000,  0.0000)
  18 Au     0.000000    0.000000   10.862818    ( 0.0000,  0.0000,  0.0000)
  19 Au     2.987585    0.001619   10.830736    ( 0.0000,  0.0000,  0.0000)
  20 Au     5.873170    0.001619   10.830736    ( 0.0000,  0.0000,  0.0000)
  21 Au     1.495195    2.586515   10.830736    ( 0.0000,  0.0000,  0.0000)
  22 Au     4.430378    2.557880   10.832398    ( 0.0000,  0.0000,  0.0000)
  23 Au     7.365560    2.586515   10.830736    ( 0.0000,  0.0000,  0.0000)
  24 Au     2.937988    5.085505   10.830736    ( 0.0000,  0.0000,  0.0000)
  25 Au     5.922767    5.085505   10.830736    ( 0.0000,  0.0000,  0.0000)
  26 Au     8.860755    5.115759   10.837056    ( 0.0000,  0.0000,  0.0000)
  27 O      0.000000    0.000000   12.810751    ( 0.0000,  0.0000,  0.0000)

Unit cell:
           periodic     x           y           z      points  spacing
  1. axis:    yes    8.860755    0.000000    0.000000    45     0.1705
  2. axis:    yes    4.430378    7.673639    0.000000    45     0.1705
  3. axis:    no     0.000000    0.000000   16.823184    84     0.2003

  Lengths:   8.860755   8.860755  16.823184
  Angles:   90.000000  90.000000  60.000000

Effective grid spacing dv^(1/3) = 0.1888

     iter     time        total  log10-change:
                         energy  eigst   dens
iter:   1 10:23:00   -81.801318  -5.11
iter:   2 10:23:06   -81.802465  -6.41  -3.72
iter:   3 10:23:11   -81.802039c -7.16  -3.86
iter:   4 10:23:17   -81.801790c -5.88  -3.97
iter:   5 10:23:23   -81.801859c -7.36  -4.48c
iter:   6 10:23:28   -81.801832c -7.53c -4.56c

Converged after 6 iterations.

Dipole moment: (0.210331, 0.121435, -0.640232) |e|*Ang

Energy contributions relative to reference atoms: (reference = -13950194.172252)

Kinetic:       -313.889212
Potential:     +254.591667
External:        +0.000000
XC:             -25.395712
Entropy (-ST):   -0.327651
Local:           +3.055250
--------------------------
Free energy:    -81.965657
Extrapolated:   -81.801832

Showing only first 2 kpts
 Kpt  Band  Eigenvalues  Occupancy
  0   149     -0.12351    1.99866
  0   150      0.08791    1.98898
  0   151      0.31603    1.89710
  0   152      0.46287    1.61872

  1   149     -0.57964    1.99999
  1   150     -0.41039    1.99992
  1   151      0.34276    1.86766
  1   152      0.40622    1.76419


Fermi level: 0.60746

No gap

Forces in eV/Ang:
  0 Au   -0.00031   -0.00018    0.00020
  1 Au   -0.00000    0.00043   -0.00141
  2 Au    0.00031   -0.00018    0.00020
  3 Au    0.00038   -0.00022   -0.00141
  4 Au   -0.00038   -0.00022   -0.00141
  5 Au   -0.00000   -0.00240    0.00048
  6 Au   -0.00000    0.00036    0.00020
  7 Au   -0.00208    0.00120    0.00048
  8 Au    0.00208    0.00120    0.00048
  9 Au    0.00000    0.00591    0.00630
 10 Au   -0.00117   -0.00067   -0.00059
 11 Au    0.00117   -0.00067   -0.00059
 12 Au    0.00365   -0.00210    0.00332
 13 Au   -0.00000    0.00135   -0.00059
 14 Au   -0.00365   -0.00210    0.00332
 15 Au   -0.00512   -0.00296    0.00630
 16 Au    0.00512   -0.00296    0.00630
 17 Au    0.00000    0.00421    0.00332
 18 Au   -0.00000    0.00000   -0.00498
 19 Au    0.00143    0.00232   -0.00237
 20 Au   -0.00143    0.00232   -0.00237
 21 Au    0.00272    0.00008   -0.00237
 22 Au   -0.00000    0.00000   -0.00556
 23 Au   -0.00272    0.00008   -0.00237
 24 Au    0.00129   -0.00240   -0.00237
 25 Au   -0.00129   -0.00240   -0.00237
 26 Au    0.00000    0.00000   -0.00176
 27 O     0.00000    0.00000    0.00246

Timing:                                      incl.     excl.
-------------------------------------------------------------------
Density initialized from wave functions:     9.694     8.353   0.4% |
 Symmetrize density:                         1.341     1.341   0.1% |
Forces:                                     26.839    26.839   1.2% |
Hamiltonian:                                 6.732     0.080   0.0% |
 Atomic:                                     3.040     1.541   0.1% |
  XC Correction:                             1.499     1.499   0.1% |
 Calculate atomic Hamiltonians:              1.760     1.760   0.1% |
 Communicate:                                0.119     0.119   0.0% |
 Initialize Hamiltonian:                     0.000     0.000   0.0% |
 Poisson:                                    0.016     0.016   0.0% |
 XC 3D grid:                                 1.717     1.717   0.1% |
LCAO initialization:                         7.749     0.143   0.0% |
 LCAO eigensolver:                           0.585     0.001   0.0% |
  Calculate projections:                     0.003     0.003   0.0% |
  DenseAtomicCorrection:                     0.004     0.004   0.0% |
  Distribute overlap matrix:                 0.064     0.064   0.0% |
  Orbital Layouts:                           0.245     0.245   0.0% |
  Potential matrix:                          0.249     0.249   0.0% |
  Sum over cells:                            0.019     0.019   0.0% |
 LCAO to grid:                               6.780     6.780   0.3% |
 Set positions (LCAO WFS):                   0.240     0.084   0.0% |
  Basic WFS set positions:                   0.004     0.004   0.0% |
  Basis functions set positions:             0.000     0.000   0.0% |
  P tci:                                     0.094     0.094   0.0% |
  ST tci:                                    0.032     0.032   0.0% |
  mktci:                                     0.026     0.026   0.0% |
PWDescriptor:                                0.359     0.359   0.0% |
Redistribute:                                0.046     0.046   0.0% |
SCF-cycle:                                2113.627    17.972   0.8% |
 Davidson:                                1800.951   328.873  15.1% |-----|
  Apply H:                                 210.266   205.103   9.4% |---|
   HMM T:                                    5.163     5.163   0.2% |
  Subspace diag:                           309.043     0.161   0.0% |
   calc_h_matrix:                          240.086    31.645   1.5% ||
    Apply H:                               208.442   203.281   9.3% |---|
     HMM T:                                  5.160     5.160   0.2% |
   diagonalize:                             17.346    17.346   0.8% |
   rotate_psi:                              51.450    51.450   2.4% ||
  calc. matrices:                          612.569   195.082   8.9% |---|
   Apply H:                                417.487   407.288  18.7% |------|
    HMM T:                                  10.199    10.199   0.5% |
  diagonalize:                             239.135   239.135  11.0% |---|
  rotate_psi:                              101.064   101.064   4.6% |-|
 Density:                                  173.542     0.010   0.0% |
  Atomic density matrices:                   1.614     1.614   0.1% |
  Mix:                                      40.532    40.532   1.9% ||
  Multipole moments:                         0.080     0.080   0.0% |
  Pseudo density:                          131.306   106.786   4.9% |-|
   Symmetrize density:                      24.520    24.520   1.1% |
 Hamiltonian:                              114.516     1.337   0.1% |
  Atomic:                                   51.964    25.938   1.2% |
   XC Correction:                           26.025    26.025   1.2% |
  Calculate atomic Hamiltonians:            29.613    29.613   1.4% ||
  Communicate:                               1.789     1.789   0.1% |
  Poisson:                                   0.306     0.306   0.0% |
  XC 3D grid:                               29.508    29.508   1.4% ||
 Orthonormalize:                             6.646     0.012   0.0% |
  calc_s_matrix:                             0.828     0.828   0.0% |
  inverse-cholesky:                          0.345     0.345   0.0% |
  projections:                               3.979     3.979   0.2% |
  rotate_psi_s:                              1.482     1.482   0.1% |
Set symmetry:                                0.003     0.003   0.0% |
Other:                                      15.280    15.280   0.7% |
-------------------------------------------------------------------
Total:                                              2180.330 100.0%

Memory usage: 635.55 MiB
Date: Fri Mar  3 10:23:32 2023
