
  ___ ___ ___ _ _ _  
 |   |   |_  | | | | 
 | | | | | . | | | | 
 |__ |  _|___|_____|  22.8.0
 |___|_|             

User:   gotols@vera41-2
Date:   Thu Mar  2 10:01:54 2023
Arch:   x86_64
Pid:    1577131
CWD:    /cephyr/users/gotols/Vera/TIF320-Computational-materials-and-molecular-physics-Assignments
Python: 3.10.4
gpaw:   /apps/Arch/software/GPAW/22.8.0-foss-2022a/lib/python3.10/site-packages/gpaw
_gpaw:  /apps/Arch/software/GPAW/22.8.0-foss-2022a/lib/python3.10/site-packages/
        _gpaw.cpython-310-x86_64-linux-gnu.so
ase:    /apps/Arch/software/ASE/3.22.1-foss-2022a/lib/python3.10/site-packages/ase (version 3.22.1)
numpy:  /apps/Arch/software/SciPy-bundle/2022.05-foss-2022a/lib/python3.10/site-packages/numpy (version 1.22.3)
scipy:  /apps/Arch/software/SciPy-bundle/2022.05-foss-2022a/lib/python3.10/site-packages/scipy (version 1.8.1)
libxc:  5.2.3
units:  Angstrom and eV
cores: 16
OpenMP: False
OMP_NUM_THREADS: 1

Input parameters:
  kpts: [4 4 1]
  mode: {ecut: 450.00000000000006,
         name: pw}
  xc: PBE

System changes: positions, numbers, cell, pbc, initial_charges, initial_magmoms 

Initialize ...

species:
  Au:
    name: Gold
    id: b12133f335f6ca0d89c4b1ccaa844e9a
    Z: 79.0
    valence: 11
    core: 68
    charge: 0.0
    file: /apps/Common/software/GPAW-setups/0.9.20000/Au.PBE.gz
    compensation charges: {type: gauss,
                           rc: 0.42,
                           lmax: 2}
    cutoffs: {filter: 2.33,
              core: 2.81}
    valence states:
      #              energy  rcut
      - 6s(1.00)    -5.728   1.323
      - 6p(0.00)    -0.775   1.323
      - 5d(10.00)    -6.891   1.323
      -  s          21.484   1.323
      -  p          26.436   1.323
      -  d          20.321   1.323
  
    # Using partial waves for Au as LCAO basis

  O:
    name: Oxygen
    id: 32ecd46bf208036f09c70b0ec9a88b78
    Z: 8.0
    valence: 6
    core: 2
    charge: 0.0
    file: /apps/Common/software/GPAW-setups/0.9.20000/O.PBE.gz
    compensation charges: {type: gauss,
                           rc: 0.21,
                           lmax: 2}
    cutoffs: {filter: 1.17,
              core: 0.83}
    valence states:
      #              energy  rcut
      - 2s(2.00)   -23.961   0.688
      - 2p(4.00)    -9.029   0.598
      -  s           3.251   0.688
      -  p          18.182   0.598
      -  d           0.000   0.619
  
    # Using partial waves for O as LCAO basis

  C:
    name: Carbon
    id: 4aa54d4b901d75f77cc0ea3eec22967b
    Z: 6.0
    valence: 4
    core: 2
    charge: 0.0
    file: /apps/Common/software/GPAW-setups/0.9.20000/C.PBE.gz
    compensation charges: {type: gauss,
                           rc: 0.20,
                           lmax: 2}
    cutoffs: {filter: 1.14,
              core: 1.14}
    valence states:
      #              energy  rcut
      - 2s(2.00)   -13.751   0.635
      - 2p(2.00)    -5.284   0.635
      -  s          13.461   0.635
      -  p          21.927   0.635
      -  d           0.000   0.635
  
    # Using partial waves for C as LCAO basis

Reference energy: -13951221.800367  # eV

Spin-paired calculation

Convergence criteria:
 Maximum [total energy] change in last 3 cyles: 0.0005 eV / electron
 Maximum integral of absolute [dens]ity change: 0.0001 electrons / valence electron
 Maximum integral of absolute [eigenst]ate change: 4e-08 eV^2 / valence electron
 Maximum number of scf [iter]ations: 333
 (Square brackets indicate name in SCF output, whereas a 'c' in
 the SCF output indicates the quantity has converged.)

Symmetries present (total): 2

  ( 1  0  0)  ( 0  1  0)
  ( 0  1  0)  ( 1  0  0)
  ( 0  0  1)  ( 0  0  1)

16 k-points: 4 x 4 x 1 Monkhorst-Pack grid
6 k-points in the irreducible part of the Brillouin zone
       k-points in crystal coordinates                weights
   0:     0.12500000   -0.12500000    0.00000000          2/16
   1:     0.12500000    0.12500000    0.00000000          2/16
   2:     0.37500000   -0.37500000    0.00000000          2/16
   3:     0.37500000   -0.12500000    0.00000000          4/16
   4:     0.37500000    0.12500000    0.00000000          4/16
   5:     0.37500000    0.37500000    0.00000000          2/16

Wave functions: Plane wave expansion
  Cutoff energy: 450.000 eV
  Number of coefficients (min, max): 24769, 24813
  Pulay-stress correction: 0.000000 eV/Ang^3 (de/decut=0.000000)
  Using FFTW library
  ScaLapack parameters: grid=1x1, blocksize=None
  Wavefunction extrapolation:
    Improved wavefunction reuse through dual PAW basis 

Occupation numbers: Fermi-Dirac:
  width: 0.1000  # eV
 

Eigensolver
   Davidson(niter=2) 

Densities:
  Coarse grid: 45*45*84 grid
  Fine grid: 90*90*168 grid
  Total Charge: 0.000000 

Density mixing:
  Method: separate
  Backend: pulay
  Linear mixing parameter: 0.05
  old densities: 5
  Damping of long wavelength oscillations: 50 

Hamiltonian:
  XC and Coulomb potentials evaluated on a 90*90*168 grid
  Using the PBE Exchange-Correlation functional
  External potential:
    NoExternalPotential
 

XC parameters: PBE with 2 nearest neighbor stencil

Memory estimate:
  Process memory now: 771.18 MiB
  Calculator: 316.57 MiB
    Density: 10.88 MiB
      Arrays: 4.23 MiB
      Localized functions: 4.95 MiB
      Mixer: 1.70 MiB
    Hamiltonian: 2.90 MiB
      Arrays: 2.77 MiB
      XC: 0.00 MiB
      Poisson: 0.00 MiB
      vbar: 0.13 MiB
    Wavefunctions: 302.79 MiB
      Arrays psit_nG: 214.68 MiB
      Eigensolver: 78.91 MiB
      Projections: 0.55 MiB
      Projectors: 1.77 MiB
      PW-descriptor: 6.88 MiB

Total number of cores used: 16
Parallelization over k-points: 2
Domain decomposition: 2 x 2 x 2

Number of atoms: 29
Number of atomic orbitals: 251
Number of bands in calculation: 189
Number of valence electrons: 307
Bands to converge: occupied

... initialized

Initializing position-dependent things.

Density initialized from atomic densities
Creating initial wave functions:
  189 bands from LCAO basis set

                                              
                                              
                                              
                                              
                                              
                                              
                                              
               O                              
                                              
               C  Au     Au     Au            
                                              
            Au     AAu    AAu    Au           
       Au     Au     AAu    Au                
                                              
        Au     Au     AAu    Au     Au        
                                              
                 Au     Au     Au             
                                              
           Au      Au     Au                  
                                              
                                              
                                              
                                              

Positions:
   0 Au     1.476793    0.852627    6.000000    ( 0.0000,  0.0000,  0.0000)
   1 Au     4.430378    0.852627    6.000000    ( 0.0000,  0.0000,  0.0000)
   2 Au     7.383963    0.852627    6.000000    ( 0.0000,  0.0000,  0.0000)
   3 Au     2.953585    3.410506    6.000000    ( 0.0000,  0.0000,  0.0000)
   4 Au     5.907170    3.410506    6.000000    ( 0.0000,  0.0000,  0.0000)
   5 Au     8.860755    3.410506    6.000000    ( 0.0000,  0.0000,  0.0000)
   6 Au     4.430378    5.968386    6.000000    ( 0.0000,  0.0000,  0.0000)
   7 Au     7.383963    5.968386    6.000000    ( 0.0000,  0.0000,  0.0000)
   8 Au    10.337548    5.968386    6.000000    ( 0.0000,  0.0000,  0.0000)
   9 Au    -0.000000    1.705253    8.411592    ( 0.0000,  0.0000,  0.0000)
  10 Au     2.953585    1.705253    8.411592    ( 0.0000,  0.0000,  0.0000)
  11 Au     5.907170    1.705253    8.411592    ( 0.0000,  0.0000,  0.0000)
  12 Au     1.476793    4.263133    8.411592    ( 0.0000,  0.0000,  0.0000)
  13 Au     4.430378    4.263133    8.411592    ( 0.0000,  0.0000,  0.0000)
  14 Au     7.383963    4.263133    8.411592    ( 0.0000,  0.0000,  0.0000)
  15 Au     2.953585    6.821012    8.411592    ( 0.0000,  0.0000,  0.0000)
  16 Au     5.907170    6.821012    8.411592    ( 0.0000,  0.0000,  0.0000)
  17 Au     8.860755    6.821012    8.411592    ( 0.0000,  0.0000,  0.0000)
  18 Au     0.000000    0.000000   10.823184    ( 0.0000,  0.0000,  0.0000)
  19 Au     2.953585    0.000000   10.823184    ( 0.0000,  0.0000,  0.0000)
  20 Au     5.907170    0.000000   10.823184    ( 0.0000,  0.0000,  0.0000)
  21 Au     1.476793    2.557880   10.823184    ( 0.0000,  0.0000,  0.0000)
  22 Au     4.430378    2.557880   10.823184    ( 0.0000,  0.0000,  0.0000)
  23 Au     7.383963    2.557880   10.823184    ( 0.0000,  0.0000,  0.0000)
  24 Au     2.953585    5.115759   10.823184    ( 0.0000,  0.0000,  0.0000)
  25 Au     5.907170    5.115759   10.823184    ( 0.0000,  0.0000,  0.0000)
  26 Au     8.860755    5.115759   10.823184    ( 0.0000,  0.0000,  0.0000)
  27 O      2.953585    1.705253   13.973524    ( 0.0000,  0.0000,  0.0000)
  28 C      2.953585    1.705253   12.823184    ( 0.0000,  0.0000,  0.0000)

Unit cell:
           periodic     x           y           z      points  spacing
  1. axis:    yes    8.860755    0.000000    0.000000    45     0.1705
  2. axis:    yes    4.430378    7.673639    0.000000    45     0.1705
  3. axis:    no     0.000000    0.000000   16.823184    84     0.2003

  Lengths:   8.860755   8.860755  16.823184
  Angles:   90.000000  90.000000  60.000000

Effective grid spacing dv^(1/3) = 0.1888

     iter     time        total  log10-change:
                         energy  eigst   dens
iter:   1 10:02:09  -100.540091
iter:   2 10:02:14   -98.707044  -1.64  -1.33
iter:   3 10:02:20   -95.216250  -2.03  -1.36
iter:   4 10:02:25   -93.175723  -1.75  -1.50
iter:   5 10:02:31   -93.089544  -2.06  -1.79
iter:   6 10:02:36   -93.006427  -3.27  -2.09
iter:   7 10:02:41   -92.947764c -2.61  -2.13
iter:   8 10:02:47   -92.937018c -3.78  -2.36
iter:   9 10:02:52   -92.883382c -3.59  -2.49
iter:  10 10:02:58   -92.872055c -3.76  -2.82
iter:  11 10:03:03   -92.871031c -4.85  -3.02
iter:  12 10:03:09   -92.870085c -4.79  -3.11
iter:  13 10:03:14   -92.869884c -5.01  -3.23
iter:  14 10:03:20   -92.869662c -5.38  -3.35
iter:  15 10:03:25   -92.869686c -5.77  -3.44
iter:  16 10:03:31   -92.869717c -6.06  -3.65
iter:  17 10:03:36   -92.869681c -6.50  -3.93
iter:  18 10:03:42   -92.869684c -6.64  -4.06c
iter:  19 10:03:47   -92.869681c -6.85  -4.20c
iter:  20 10:03:53   -92.869650c -7.12  -4.31c
iter:  21 10:03:58   -92.869641c -7.32  -4.41c
iter:  22 10:04:03   -92.869644c -8.00c -4.58c

Converged after 22 iterations.

Dipole moment: (-0.745554, -0.430446, 0.105760) |e|*Ang

Energy contributions relative to reference atoms: (reference = -13951221.800367)

Kinetic:       -293.535092
Potential:     +232.829409
External:        +0.000000
XC:             -35.024423
Entropy (-ST):   -0.303313
Local:           +3.012119
--------------------------
Free energy:    -93.021300
Extrapolated:   -92.869644

Showing only first 2 kpts
 Kpt  Band  Eigenvalues  Occupancy
  0   151     -0.19501    1.99999
  0   152      0.18512    1.99958
  0   153      0.51008    1.98916
  0   154      0.61293    1.96996

  1   151     -0.25719    1.99999
  1   152     -0.21002    1.99999
  1   153     -0.04077    1.99996
  1   154      0.38131    1.99700


Fermi level: 1.03127

No gap

Forces in eV/Ang:
  0 Au    0.01893    0.01093   -0.05754
  1 Au   -0.02273    0.01464   -0.07011
  2 Au   -0.00269   -0.01853   -0.02818
  3 Au    0.00131   -0.02700   -0.07011
  4 Au    0.03224    0.01861   -0.03964
  5 Au   -0.04091    0.01638   -0.05120
  6 Au   -0.01740    0.00694   -0.02818
  7 Au   -0.00626   -0.04362   -0.05120
  8 Au    0.01778    0.01027   -0.03520
  9 Au    0.02199   -0.00945    0.03566
 10 Au    0.00372    0.00215   -0.11719
 11 Au   -0.02477    0.00376    0.02774
 12 Au    0.00317   -0.00418    0.03966
 13 Au   -0.00913   -0.02334    0.02774
 14 Au    0.00935    0.00540   -0.02541
 15 Au    0.00440    0.00254   -0.03563
 16 Au    0.00281    0.02377    0.03566
 17 Au   -0.00203    0.00483    0.03966
 18 Au   -0.05675   -0.03276    0.01574
 19 Au    0.00114   -0.27238    0.16368
 20 Au    0.06735   -0.04082    0.01651
 21 Au   -0.23532    0.13718    0.16368
 22 Au    0.24308    0.14034    0.17554
 23 Au   -0.00524   -0.01428    0.06606
 24 Au   -0.00168    0.07874    0.01651
 25 Au   -0.01499    0.00260    0.06606
 26 Au    0.01996    0.01153    0.06783
 27 O     0.00260    0.00150    0.10899
 28 C    -0.01003   -0.00579   -0.40898

System changes: positions 

Initializing position-dependent things.

Density initialized from wave functions
                                              
                                              
                                              
                                              
                                              
                                              
                                              
               O                              
                                              
               C  Au     Au     Au            
                                              
            Au     AAu    AAu    Au           
       Au     Au     AAu    Au                
                                              
        Au     Au     AAu    Au     Au        
                                              
                 Au     Au     Au             
                                              
           Au      Au     Au                  
                                              
                                              
                                              
                                              

Positions:
   0 Au     1.476793    0.852627    6.000000    ( 0.0000,  0.0000,  0.0000)
   1 Au     4.430378    0.852627    6.000000    ( 0.0000,  0.0000,  0.0000)
   2 Au     7.383963    0.852627    6.000000    ( 0.0000,  0.0000,  0.0000)
   3 Au     2.953585    3.410506    6.000000    ( 0.0000,  0.0000,  0.0000)
   4 Au     5.907170    3.410506    6.000000    ( 0.0000,  0.0000,  0.0000)
   5 Au     8.860755    3.410506    6.000000    ( 0.0000,  0.0000,  0.0000)
   6 Au     4.430378    5.968386    6.000000    ( 0.0000,  0.0000,  0.0000)
   7 Au     7.383963    5.968386    6.000000    ( 0.0000,  0.0000,  0.0000)
   8 Au    10.337548    5.968386    6.000000    ( 0.0000,  0.0000,  0.0000)
   9 Au    -0.000000    1.705253    8.411592    ( 0.0000,  0.0000,  0.0000)
  10 Au     2.953585    1.705253    8.411592    ( 0.0000,  0.0000,  0.0000)
  11 Au     5.907170    1.705253    8.411592    ( 0.0000,  0.0000,  0.0000)
  12 Au     1.476793    4.263133    8.411592    ( 0.0000,  0.0000,  0.0000)
  13 Au     4.430378    4.263133    8.411592    ( 0.0000,  0.0000,  0.0000)
  14 Au     7.383963    4.263133    8.411592    ( 0.0000,  0.0000,  0.0000)
  15 Au     2.953585    6.821012    8.411592    ( 0.0000,  0.0000,  0.0000)
  16 Au     5.907170    6.821012    8.411592    ( 0.0000,  0.0000,  0.0000)
  17 Au     8.860755    6.821012    8.411592    ( 0.0000,  0.0000,  0.0000)
  18 Au     0.000000    0.000000   10.823184    ( 0.0000,  0.0000,  0.0000)
  19 Au     2.953585    0.000000   10.823184    ( 0.0000,  0.0000,  0.0000)
  20 Au     5.907170    0.000000   10.823184    ( 0.0000,  0.0000,  0.0000)
  21 Au     1.476793    2.557880   10.823184    ( 0.0000,  0.0000,  0.0000)
  22 Au     4.430378    2.557880   10.823184    ( 0.0000,  0.0000,  0.0000)
  23 Au     7.383963    2.557880   10.823184    ( 0.0000,  0.0000,  0.0000)
  24 Au     2.953585    5.115759   10.823184    ( 0.0000,  0.0000,  0.0000)
  25 Au     5.907170    5.115759   10.823184    ( 0.0000,  0.0000,  0.0000)
  26 Au     8.860755    5.115759   10.823184    ( 0.0000,  0.0000,  0.0000)
  27 O      2.953585    1.705253   13.973524    ( 0.0000,  0.0000,  0.0000)
  28 C      2.943778    1.699591   12.423344    ( 0.0000,  0.0000,  0.0000)

Unit cell:
           periodic     x           y           z      points  spacing
  1. axis:    yes    8.860755    0.000000    0.000000    45     0.1705
  2. axis:    yes    4.430378    7.673639    0.000000    45     0.1705
  3. axis:    no     0.000000    0.000000   16.823184    84     0.2003

  Lengths:   8.860755   8.860755  16.823184
  Angles:   90.000000  90.000000  60.000000

Effective grid spacing dv^(1/3) = 0.1888

     iter     time        total  log10-change:
                         energy  eigst   dens
iter:   1 10:04:11  -114.181275  -0.26
iter:   2 10:04:17   -99.954056  -1.38  -1.48
iter:   3 10:04:22   -92.786565  -1.59  -1.73
iter:   4 10:04:27   -92.151759  -2.08  -1.83
iter:   5 10:04:33   -90.629719  -2.21  -1.98
iter:   6 10:04:38   -90.422360  -3.45  -2.18
iter:   7 10:04:44   -90.238363  -2.39  -2.31
iter:   8 10:04:49   -90.085512  -3.00  -2.30
iter:   9 10:04:55   -90.009381  -3.16  -2.47
iter:  10 10:05:00   -90.001558c -3.96  -2.86
iter:  11 10:05:06   -90.002272c -4.35  -2.98
iter:  12 10:05:11   -90.006488c -4.24  -3.05
iter:  13 10:05:17   -90.003436c -4.61  -3.11
iter:  14 10:05:22   -90.002983c -5.44  -3.36
iter:  15 10:05:28   -90.002571c -5.53  -3.44
iter:  16 10:05:33   -90.002312c -5.13  -3.56
iter:  17 10:05:39   -90.002300c -6.06  -3.85
iter:  18 10:05:44   -90.002288c -6.66  -4.01c
iter:  19 10:05:49   -90.002292c -6.43  -4.10c
iter:  20 10:05:55   -90.002284c -7.23  -4.33c
iter:  21 10:06:00   -90.002281c -7.85c -4.46c

Converged after 21 iterations.

Dipole moment: (0.130980, 0.075621, -0.732863) |e|*Ang

Energy contributions relative to reference atoms: (reference = -13951221.800367)

Kinetic:       -317.940405
Potential:     +254.667718
External:        +0.000000
XC:             -29.639739
Entropy (-ST):   -0.330981
Local:           +3.075635
--------------------------
Free energy:    -90.167772
Extrapolated:   -90.002281

Showing only first 2 kpts
 Kpt  Band  Eigenvalues  Occupancy
  0   151     -0.44294    1.99999
  0   152      0.00300    1.99873
  0   153      0.24005    1.98644
  0   154      0.50522    1.82354

  1   151     -0.49976    1.99999
  1   152     -0.46209    1.99999
  1   153     -0.29727    1.99994
  1   154      0.47425    1.86742


Fermi level: 0.73876

No gap

Forces in eV/Ang:
  0 Au   -0.00203   -0.00117   -0.08551
  1 Au   -0.00681    0.01313   -0.09413
  2 Au    0.00288   -0.00640   -0.02373
  3 Au    0.00797   -0.01247   -0.09413
  4 Au    0.02148    0.01240   -0.04861
  5 Au   -0.03575    0.01225   -0.05511
  6 Au   -0.00410    0.00570   -0.02373
  7 Au   -0.00727   -0.03708   -0.05511
  8 Au    0.00434    0.00251   -0.02267
  9 Au    0.04675    0.02687    0.05491
 10 Au    0.00638    0.00368   -0.27047
 11 Au   -0.04952    0.03624    0.04144
 12 Au   -0.01660   -0.03686    0.05980
 13 Au    0.00662   -0.06100    0.04144
 14 Au    0.01443    0.00833   -0.00954
 15 Au    0.00182    0.00105   -0.01214
 16 Au    0.04665    0.02705    0.05491
 17 Au   -0.04022    0.00405    0.05980
 18 Au   -0.14860   -0.08579   -0.00038
 19 Au    0.00434   -0.12734    0.69319
 20 Au    0.15343   -0.09286    0.00294
 21 Au   -0.10811    0.06743    0.69319
 22 Au    0.10616    0.06129    0.69292
 23 Au   -0.00271    0.00732    0.01710
 24 Au   -0.00371    0.17930    0.00294
 25 Au    0.00498   -0.00601    0.01710
 26 Au   -0.00156   -0.00090    0.01136
 27 O    -0.06386   -0.03687   -9.79272
 28 C     0.06240    0.03603    8.12842

System changes: positions 

Initializing position-dependent things.

Density initialized from wave functions
                                              
                                              
                                              
                                              
                                              
                                              
                                              
               O                              
                                              
               C  Au     Au     Au            
                                              
            Au     AAu    AAu    Au           
       Au     Au     AAu    Au                
                                              
        Au     Au     AAu    Au     Au        
                                              
                 Au     Au     Au             
                                              
           Au      Au     Au                  
                                              
                                              
                                              
                                              

Positions:
   0 Au     1.476793    0.852627    6.000000    ( 0.0000,  0.0000,  0.0000)
   1 Au     4.430378    0.852627    6.000000    ( 0.0000,  0.0000,  0.0000)
   2 Au     7.383963    0.852627    6.000000    ( 0.0000,  0.0000,  0.0000)
   3 Au     2.953585    3.410506    6.000000    ( 0.0000,  0.0000,  0.0000)
   4 Au     5.907170    3.410506    6.000000    ( 0.0000,  0.0000,  0.0000)
   5 Au     8.860755    3.410506    6.000000    ( 0.0000,  0.0000,  0.0000)
   6 Au     4.430378    5.968386    6.000000    ( 0.0000,  0.0000,  0.0000)
   7 Au     7.383963    5.968386    6.000000    ( 0.0000,  0.0000,  0.0000)
   8 Au    10.337548    5.968386    6.000000    ( 0.0000,  0.0000,  0.0000)
   9 Au    -0.000000    1.705253    8.411592    ( 0.0000,  0.0000,  0.0000)
  10 Au     2.953585    1.705253    8.411592    ( 0.0000,  0.0000,  0.0000)
  11 Au     5.907170    1.705253    8.411592    ( 0.0000,  0.0000,  0.0000)
  12 Au     1.476793    4.263133    8.411592    ( 0.0000,  0.0000,  0.0000)
  13 Au     4.430378    4.263133    8.411592    ( 0.0000,  0.0000,  0.0000)
  14 Au     7.383963    4.263133    8.411592    ( 0.0000,  0.0000,  0.0000)
  15 Au     2.953585    6.821012    8.411592    ( 0.0000,  0.0000,  0.0000)
  16 Au     5.907170    6.821012    8.411592    ( 0.0000,  0.0000,  0.0000)
  17 Au     8.860755    6.821012    8.411592    ( 0.0000,  0.0000,  0.0000)
  18 Au     0.000000    0.000000   10.823184    ( 0.0000,  0.0000,  0.0000)
  19 Au     2.953585    0.000000   10.823184    ( 0.0000,  0.0000,  0.0000)
  20 Au     5.907170    0.000000   10.823184    ( 0.0000,  0.0000,  0.0000)
  21 Au     1.476793    2.557880   10.823184    ( 0.0000,  0.0000,  0.0000)
  22 Au     4.430378    2.557880   10.823184    ( 0.0000,  0.0000,  0.0000)
  23 Au     7.383963    2.557880   10.823184    ( 0.0000,  0.0000,  0.0000)
  24 Au     2.953585    5.115759   10.823184    ( 0.0000,  0.0000,  0.0000)
  25 Au     5.907170    5.115759   10.823184    ( 0.0000,  0.0000,  0.0000)
  26 Au     8.860755    5.115759   10.823184    ( 0.0000,  0.0000,  0.0000)
  27 O      2.953585    1.705253   13.973524    ( 0.0000,  0.0000,  0.0000)
  28 C      2.953369    1.705128   12.816054    ( 0.0000,  0.0000,  0.0000)

Unit cell:
           periodic     x           y           z      points  spacing
  1. axis:    yes    8.860755    0.000000    0.000000    45     0.1705
  2. axis:    yes    4.430378    7.673639    0.000000    45     0.1705
  3. axis:    no     0.000000    0.000000   16.823184    84     0.2003

  Lengths:   8.860755   8.860755  16.823184
  Angles:   90.000000  90.000000  60.000000

Effective grid spacing dv^(1/3) = 0.1888

     iter     time        total  log10-change:
                         energy  eigst   dens
iter:   1 10:06:08   -98.175733  -1.22
iter:   2 10:06:13   -96.043248  -2.53  -1.85
iter:   3 10:06:19   -94.077634  -2.16  -2.04
iter:   4 10:06:24   -93.366644  -2.31  -2.17
iter:   5 10:06:30   -93.137457  -2.38  -2.12
iter:   6 10:06:35   -93.001635  -2.81  -2.37
iter:   7 10:06:41   -92.912825  -3.33  -2.40
iter:   8 10:06:46   -92.880439c -3.04  -2.62
iter:   9 10:06:52   -92.875036c -4.23  -2.86
iter:  10 10:06:57   -92.870730c -4.50  -2.99
iter:  11 10:07:03   -92.870345c -5.13  -3.19
iter:  12 10:07:08   -92.870202c -5.30  -3.30
iter:  13 10:07:13   -92.870085c -5.07  -3.44
iter:  14 10:07:19   -92.869991c -5.83  -3.64
iter:  15 10:07:24   -92.870005c -6.12  -3.82
iter:  16 10:07:30   -92.870042c -6.36  -3.94
iter:  17 10:07:35   -92.869960c -6.14  -4.00c
iter:  18 10:07:41   -92.869963c -7.27  -4.19c
iter:  19 10:07:46   -92.869969c -7.47c -4.25c

Converged after 19 iterations.

Dipole moment: (-0.729890, -0.421402, 0.087905) |e|*Ang

Energy contributions relative to reference atoms: (reference = -13951221.800367)

Kinetic:       -294.817349
Potential:     +233.908635
External:        +0.000000
XC:             -34.831753
Entropy (-ST):   -0.303661
Local:           +3.022328
--------------------------
Free energy:    -93.021800
Extrapolated:   -92.869969

Showing only first 2 kpts
 Kpt  Band  Eigenvalues  Occupancy
  0   151     -0.19994    1.99999
  0   152      0.18213    1.99957
  0   153      0.50479    1.98912
  0   154      0.60944    1.96934

  1   151     -0.26209    1.99999
  1   152     -0.21542    1.99999
  1   153     -0.04574    1.99996
  1   154      0.38178    1.99681


Fermi level: 1.02569

No gap

Forces in eV/Ang:
  0 Au    0.01899    0.01096   -0.05459
  1 Au   -0.02284    0.01482   -0.06701
  2 Au   -0.00273   -0.01805   -0.02358
  3 Au    0.00141   -0.02719   -0.06701
  4 Au    0.03223    0.01861   -0.03583
  5 Au   -0.04106    0.01644   -0.04723
  6 Au   -0.01700    0.00666   -0.02358
  7 Au   -0.00629   -0.04378   -0.04723
  8 Au    0.01723    0.00995   -0.03055
  9 Au    0.02160   -0.00937    0.03349
 10 Au    0.00377    0.00218   -0.11552
 11 Au   -0.02443    0.00375    0.02542
 12 Au    0.00293   -0.00357    0.03746
 13 Au   -0.00896   -0.02303    0.02542
 14 Au    0.00943    0.00545   -0.02884
 15 Au    0.00419    0.00242   -0.03815
 16 Au    0.00269    0.02339    0.03349
 17 Au   -0.00163    0.00432    0.03746
 18 Au   -0.05869   -0.03388    0.01968
 19 Au    0.00128   -0.27052    0.17262
 20 Au    0.06919   -0.04207    0.02054
 21 Au   -0.23364    0.13636    0.17262
 22 Au    0.24149    0.13942    0.18407
 23 Au   -0.00515   -0.01439    0.06945
 24 Au   -0.00184    0.08096    0.02054
 25 Au   -0.01503    0.00274    0.06945
 26 Au    0.02022    0.01168    0.07127
 27 O     0.00194    0.00112   -0.61994
 28 C    -0.01020   -0.00589    0.31217

System changes: positions 

Initializing position-dependent things.

Density initialized from wave functions
                                              
                                              
                                              
                                              
                                              
                                              
                                              
               O                              
                                              
               C  Au     Au     Au            
                                              
            Au     AAu    AAu    Au           
       Au     Au     AAu    Au                
                                              
        Au     Au     AAu    Au     Au        
                                              
                 Au     Au     Au             
                                              
           Au      Au     Au                  
                                              
                                              
                                              
                                              

Positions:
   0 Au     1.476793    0.852627    6.000000    ( 0.0000,  0.0000,  0.0000)
   1 Au     4.430378    0.852627    6.000000    ( 0.0000,  0.0000,  0.0000)
   2 Au     7.383963    0.852627    6.000000    ( 0.0000,  0.0000,  0.0000)
   3 Au     2.953585    3.410506    6.000000    ( 0.0000,  0.0000,  0.0000)
   4 Au     5.907170    3.410506    6.000000    ( 0.0000,  0.0000,  0.0000)
   5 Au     8.860755    3.410506    6.000000    ( 0.0000,  0.0000,  0.0000)
   6 Au     4.430378    5.968386    6.000000    ( 0.0000,  0.0000,  0.0000)
   7 Au     7.383963    5.968386    6.000000    ( 0.0000,  0.0000,  0.0000)
   8 Au    10.337548    5.968386    6.000000    ( 0.0000,  0.0000,  0.0000)
   9 Au    -0.000000    1.705253    8.411592    ( 0.0000,  0.0000,  0.0000)
  10 Au     2.953585    1.705253    8.411592    ( 0.0000,  0.0000,  0.0000)
  11 Au     5.907170    1.705253    8.411592    ( 0.0000,  0.0000,  0.0000)
  12 Au     1.476793    4.263133    8.411592    ( 0.0000,  0.0000,  0.0000)
  13 Au     4.430378    4.263133    8.411592    ( 0.0000,  0.0000,  0.0000)
  14 Au     7.383963    4.263133    8.411592    ( 0.0000,  0.0000,  0.0000)
  15 Au     2.953585    6.821012    8.411592    ( 0.0000,  0.0000,  0.0000)
  16 Au     5.907170    6.821012    8.411592    ( 0.0000,  0.0000,  0.0000)
  17 Au     8.860755    6.821012    8.411592    ( 0.0000,  0.0000,  0.0000)
  18 Au     0.000000    0.000000   10.823184    ( 0.0000,  0.0000,  0.0000)
  19 Au     2.953585    0.000000   10.823184    ( 0.0000,  0.0000,  0.0000)
  20 Au     5.907170    0.000000   10.823184    ( 0.0000,  0.0000,  0.0000)
  21 Au     1.476793    2.557880   10.823184    ( 0.0000,  0.0000,  0.0000)
  22 Au     4.430378    2.557880   10.823184    ( 0.0000,  0.0000,  0.0000)
  23 Au     7.383963    2.557880   10.823184    ( 0.0000,  0.0000,  0.0000)
  24 Au     2.953585    5.115759   10.823184    ( 0.0000,  0.0000,  0.0000)
  25 Au     5.907170    5.115759   10.823184    ( 0.0000,  0.0000,  0.0000)
  26 Au     8.860755    5.115759   10.823184    ( 0.0000,  0.0000,  0.0000)
  27 O      2.953585    1.705253   13.973524    ( 0.0000,  0.0000,  0.0000)
  28 C      2.952893    1.704854   12.819167    ( 0.0000,  0.0000,  0.0000)

Unit cell:
           periodic     x           y           z      points  spacing
  1. axis:    yes    8.860755    0.000000    0.000000    45     0.1705
  2. axis:    yes    4.430378    7.673639    0.000000    45     0.1705
  3. axis:    no     0.000000    0.000000   16.823184    84     0.2003

  Lengths:   8.860755   8.860755  16.823184
  Angles:   90.000000  90.000000  60.000000

Effective grid spacing dv^(1/3) = 0.1888

     iter     time        total  log10-change:
                         energy  eigst   dens
iter:   1 10:07:54   -92.872404  -4.73
iter:   2 10:07:59   -92.871383  -5.79  -3.47
iter:   3 10:08:05   -92.870611c -5.49  -3.70
iter:   4 10:08:10   -92.870489c -6.12  -3.98
iter:   5 10:08:16   -92.870478c -6.40  -4.00c
iter:   6 10:08:21   -92.870507c -6.61  -4.37c
iter:   7 10:08:27   -92.870438c -6.63  -4.30c
iter:   8 10:08:32   -92.870438c -7.96c -4.77c

Converged after 8 iterations.

Dipole moment: (-0.737733, -0.425930, 0.096440) |e|*Ang

Energy contributions relative to reference atoms: (reference = -13951221.800367)

Kinetic:       -294.657993
Potential:     +233.824550
External:        +0.000000
XC:             -34.894209
Entropy (-ST):   -0.303476
Local:           +3.008952
--------------------------
Free energy:    -93.022176
Extrapolated:   -92.870438

Showing only first 2 kpts
 Kpt  Band  Eigenvalues  Occupancy
  0   151     -0.19783    1.99999
  0   152      0.18335    1.99957
  0   153      0.50712    1.98913
  0   154      0.61089    1.96961

  1   151     -0.25999    1.99999
  1   152     -0.21312    1.99999
  1   153     -0.04359    1.99996
  1   154      0.38144    1.99689


Fermi level: 1.02803

No gap

Forces in eV/Ang:
  0 Au    0.01867    0.01078   -0.05777
  1 Au   -0.02239    0.01457   -0.07025
  2 Au   -0.00276   -0.01828   -0.02798
  3 Au    0.00142   -0.02667   -0.07025
  4 Au    0.03245    0.01873   -0.03943
  5 Au   -0.04121    0.01650   -0.05091
  6 Au   -0.01720    0.00675   -0.02798
  7 Au   -0.00632   -0.04394   -0.05091
  8 Au    0.01761    0.01017   -0.03482
  9 Au    0.02190   -0.00926    0.03534
 10 Au    0.00372    0.00215   -0.11845
 11 Au   -0.02457    0.00379    0.02704
 12 Au    0.00295   -0.00395    0.03929
 13 Au   -0.00900   -0.02317    0.02704
 14 Au    0.00942    0.00544   -0.02611
 15 Au    0.00423    0.00244   -0.03549
 16 Au    0.00293    0.02360    0.03534
 17 Au   -0.00195    0.00453    0.03929
 18 Au   -0.05801   -0.03349    0.01725
 19 Au    0.00149   -0.27011    0.16740
 20 Au    0.06815   -0.04143    0.01829
 21 Au   -0.23317    0.13635    0.16740
 22 Au    0.24125    0.13928    0.17856
 23 Au   -0.00506   -0.01461    0.06829
 24 Au   -0.00180    0.07974    0.01829
 25 Au   -0.01518    0.00292    0.06829
 26 Au    0.02028    0.01171    0.07003
 27 O     0.00289    0.00167   -0.28464
 28 C    -0.00937   -0.00541   -0.01499

System changes: positions 

Initializing position-dependent things.

Density initialized from wave functions
                                              
                                              
                                              
                                              
                                              
                                              
                                              
               O                              
                                              
               C  Au     Au     Au            
                                              
            Au     AAu    AAu    Au           
       Au     Au     AAu    Au                
                                              
        Au     Au     AAu    Au     Au        
                                              
                 Au     Au     Au             
                                              
           Au      Au     Au                  
                                              
                                              
                                              
                                              

Positions:
   0 Au     1.476793    0.852627    6.000000    ( 0.0000,  0.0000,  0.0000)
   1 Au     4.430378    0.852627    6.000000    ( 0.0000,  0.0000,  0.0000)
   2 Au     7.383963    0.852627    6.000000    ( 0.0000,  0.0000,  0.0000)
   3 Au     2.953585    3.410506    6.000000    ( 0.0000,  0.0000,  0.0000)
   4 Au     5.907170    3.410506    6.000000    ( 0.0000,  0.0000,  0.0000)
   5 Au     8.860755    3.410506    6.000000    ( 0.0000,  0.0000,  0.0000)
   6 Au     4.430378    5.968386    6.000000    ( 0.0000,  0.0000,  0.0000)
   7 Au     7.383963    5.968386    6.000000    ( 0.0000,  0.0000,  0.0000)
   8 Au    10.337548    5.968386    6.000000    ( 0.0000,  0.0000,  0.0000)
   9 Au    -0.000000    1.705253    8.411592    ( 0.0000,  0.0000,  0.0000)
  10 Au     2.953585    1.705253    8.411592    ( 0.0000,  0.0000,  0.0000)
  11 Au     5.907170    1.705253    8.411592    ( 0.0000,  0.0000,  0.0000)
  12 Au     1.476793    4.263133    8.411592    ( 0.0000,  0.0000,  0.0000)
  13 Au     4.430378    4.263133    8.411592    ( 0.0000,  0.0000,  0.0000)
  14 Au     7.383963    4.263133    8.411592    ( 0.0000,  0.0000,  0.0000)
  15 Au     2.953585    6.821012    8.411592    ( 0.0000,  0.0000,  0.0000)
  16 Au     5.907170    6.821012    8.411592    ( 0.0000,  0.0000,  0.0000)
  17 Au     8.860755    6.821012    8.411592    ( 0.0000,  0.0000,  0.0000)
  18 Au     0.000000    0.000000   10.823184    ( 0.0000,  0.0000,  0.0000)
  19 Au     2.953585    0.000000   10.823184    ( 0.0000,  0.0000,  0.0000)
  20 Au     5.907170    0.000000   10.823184    ( 0.0000,  0.0000,  0.0000)
  21 Au     1.476793    2.557880   10.823184    ( 0.0000,  0.0000,  0.0000)
  22 Au     4.430378    2.557880   10.823184    ( 0.0000,  0.0000,  0.0000)
  23 Au     7.383963    2.557880   10.823184    ( 0.0000,  0.0000,  0.0000)
  24 Au     2.953585    5.115759   10.823184    ( 0.0000,  0.0000,  0.0000)
  25 Au     5.907170    5.115759   10.823184    ( 0.0000,  0.0000,  0.0000)
  26 Au     8.860755    5.115759   10.823184    ( 0.0000,  0.0000,  0.0000)
  27 O      2.953585    1.705253   13.973524    ( 0.0000,  0.0000,  0.0000)
  28 C      2.949861    1.703103   12.819103    ( 0.0000,  0.0000,  0.0000)

Unit cell:
           periodic     x           y           z      points  spacing
  1. axis:    yes    8.860755    0.000000    0.000000    45     0.1705
  2. axis:    yes    4.430378    7.673639    0.000000    45     0.1705
  3. axis:    no     0.000000    0.000000   16.823184    84     0.2003

  Lengths:   8.860755   8.860755  16.823184
  Angles:   90.000000  90.000000  60.000000

Effective grid spacing dv^(1/3) = 0.1888

     iter     time        total  log10-change:
                         energy  eigst   dens
iter:   1 10:08:40   -92.870540  -5.05
iter:   2 10:08:45   -92.870530  -6.31  -4.31c
iter:   3 10:08:51   -92.870507c -6.79  -4.42c
iter:   4 10:08:56   -92.870501c -7.26  -4.62c
iter:   5 10:09:02   -92.870506c -7.65c -4.71c

Converged after 5 iterations.

Dipole moment: (-0.739540, -0.426974, 0.096909) |e|*Ang

Energy contributions relative to reference atoms: (reference = -13951221.800367)

Kinetic:       -294.708773
Potential:     +233.880981
External:        +0.000000
XC:             -34.890370
Entropy (-ST):   -0.303430
Local:           +2.999371
--------------------------
Free energy:    -93.022220
Extrapolated:   -92.870506

Showing only first 2 kpts
 Kpt  Band  Eigenvalues  Occupancy
  0   151     -0.19788    1.99999
  0   152      0.18328    1.99957
  0   153      0.50714    1.98912
  0   154      0.61090    1.96959

  1   151     -0.26001    1.99999
  1   152     -0.21321    1.99999
  1   153     -0.04365    1.99996
  1   154      0.38149    1.99689


Fermi level: 1.02799

No gap

Forces in eV/Ang:
  0 Au    0.01858    0.01073   -0.05795
  1 Au   -0.02209    0.01435   -0.07082
  2 Au   -0.00292   -0.01837   -0.02860
  3 Au    0.00139   -0.02630   -0.07082
  4 Au    0.03270    0.01888   -0.04011
  5 Au   -0.04141    0.01652   -0.05147
  6 Au   -0.01737    0.00665   -0.02860
  7 Au   -0.00639   -0.04412   -0.05147
  8 Au    0.01791    0.01034   -0.03527
  9 Au    0.02248   -0.00893    0.03580
 10 Au    0.00377    0.00218   -0.11846
 11 Au   -0.02485    0.00379    0.02734
 12 Au    0.00287   -0.00465    0.04018
 13 Au   -0.00914   -0.02342    0.02734
 14 Au    0.00943    0.00545   -0.02566
 15 Au    0.00417    0.00241   -0.03494
 16 Au    0.00350    0.02393    0.03580
 17 Au   -0.00259    0.00481    0.04018
 18 Au   -0.06145   -0.03548    0.01272
 19 Au    0.00453   -0.27045    0.16927
 20 Au    0.06752   -0.04026    0.01696
 21 Au   -0.23196    0.13915    0.16927
 22 Au    0.24599    0.14202    0.17753
 23 Au   -0.00667   -0.01426    0.06536
 24 Au   -0.00111    0.07860    0.01696
 25 Au   -0.01569    0.00135    0.06536
 26 Au    0.02012    0.01162    0.06707
 27 O     0.00455    0.00262   -0.29139
 28 C    -0.00792   -0.00457   -0.01853

System changes: positions 

Initializing position-dependent things.

Density initialized from wave functions
                                              
                                              
                                              
                                              
                                              
                                              
                                              
               O                              
                                              
               C  Au     Au     Au            
                                              
            Au     AAu    AAu    Au           
       Au     Au     AAu    Au                
                                              
        Au     Au     AAu    Au     Au        
                                              
                 Au     Au     Au             
                                              
           Au      Au     Au                  
                                              
                                              
                                              
                                              

Positions:
   0 Au     1.476793    0.852627    6.000000    ( 0.0000,  0.0000,  0.0000)
   1 Au     4.430378    0.852627    6.000000    ( 0.0000,  0.0000,  0.0000)
   2 Au     7.383963    0.852627    6.000000    ( 0.0000,  0.0000,  0.0000)
   3 Au     2.953585    3.410506    6.000000    ( 0.0000,  0.0000,  0.0000)
   4 Au     5.907170    3.410506    6.000000    ( 0.0000,  0.0000,  0.0000)
   5 Au     8.860755    3.410506    6.000000    ( 0.0000,  0.0000,  0.0000)
   6 Au     4.430378    5.968386    6.000000    ( 0.0000,  0.0000,  0.0000)
   7 Au     7.383963    5.968386    6.000000    ( 0.0000,  0.0000,  0.0000)
   8 Au    10.337548    5.968386    6.000000    ( 0.0000,  0.0000,  0.0000)
   9 Au    -0.000000    1.705253    8.411592    ( 0.0000,  0.0000,  0.0000)
  10 Au     2.953585    1.705253    8.411592    ( 0.0000,  0.0000,  0.0000)
  11 Au     5.907170    1.705253    8.411592    ( 0.0000,  0.0000,  0.0000)
  12 Au     1.476793    4.263133    8.411592    ( 0.0000,  0.0000,  0.0000)
  13 Au     4.430378    4.263133    8.411592    ( 0.0000,  0.0000,  0.0000)
  14 Au     7.383963    4.263133    8.411592    ( 0.0000,  0.0000,  0.0000)
  15 Au     2.953585    6.821012    8.411592    ( 0.0000,  0.0000,  0.0000)
  16 Au     5.907170    6.821012    8.411592    ( 0.0000,  0.0000,  0.0000)
  17 Au     8.860755    6.821012    8.411592    ( 0.0000,  0.0000,  0.0000)
  18 Au     0.000000    0.000000   10.823184    ( 0.0000,  0.0000,  0.0000)
  19 Au     2.953585    0.000000   10.823184    ( 0.0000,  0.0000,  0.0000)
  20 Au     5.907170    0.000000   10.823184    ( 0.0000,  0.0000,  0.0000)
  21 Au     1.476793    2.557880   10.823184    ( 0.0000,  0.0000,  0.0000)
  22 Au     4.430378    2.557880   10.823184    ( 0.0000,  0.0000,  0.0000)
  23 Au     7.383963    2.557880   10.823184    ( 0.0000,  0.0000,  0.0000)
  24 Au     2.953585    5.115759   10.823184    ( 0.0000,  0.0000,  0.0000)
  25 Au     5.907170    5.115759   10.823184    ( 0.0000,  0.0000,  0.0000)
  26 Au     8.860755    5.115759   10.823184    ( 0.0000,  0.0000,  0.0000)
  27 O      2.953585    1.705253   13.973524    ( 0.0000,  0.0000,  0.0000)
  28 C      2.940690    1.697808   12.818785    ( 0.0000,  0.0000,  0.0000)

Unit cell:
           periodic     x           y           z      points  spacing
  1. axis:    yes    8.860755    0.000000    0.000000    45     0.1705
  2. axis:    yes    4.430378    7.673639    0.000000    45     0.1705
  3. axis:    no     0.000000    0.000000   16.823184    84     0.2003

  Lengths:   8.860755   8.860755  16.823184
  Angles:   90.000000  90.000000  60.000000

Effective grid spacing dv^(1/3) = 0.1888

     iter     time        total  log10-change:
                         energy  eigst   dens
iter:   1 10:09:09   -92.870866  -4.16
iter:   2 10:09:15   -92.870830  -5.45  -3.95
iter:   3 10:09:20   -92.870760c -5.59  -4.04c
iter:   4 10:09:26   -92.870751c -6.72  -4.21c
iter:   5 10:09:31   -92.870707c -6.13  -4.27c
iter:   6 10:09:37   -92.870714c -7.32  -4.40c
iter:   7 10:09:42   -92.870727c -6.93  -4.56c
iter:   8 10:09:48   -92.870723c -8.07c -4.78c

Converged after 8 iterations.

Dipole moment: (-0.742766, -0.428836, 0.096285) |e|*Ang

Energy contributions relative to reference atoms: (reference = -13951221.800367)

Kinetic:       -294.722504
Potential:     +233.886100
External:        +0.000000
XC:             -34.882673
Entropy (-ST):   -0.303290
Local:           +2.999998
--------------------------
Free energy:    -93.022368
Extrapolated:   -92.870723

Showing only first 2 kpts
 Kpt  Band  Eigenvalues  Occupancy
  0   151     -0.19807    1.99999
  0   152      0.18280    1.99957
  0   153      0.50714    1.98910
  0   154      0.61087    1.96954

  1   151     -0.26006    1.99999
  1   152     -0.21351    1.99999
  1   153     -0.04379    1.99996
  1   154      0.38126    1.99689


Fermi level: 1.02779

No gap

Forces in eV/Ang:
  0 Au    0.01987    0.01147   -0.06039
  1 Au   -0.02117    0.01547   -0.07190
  2 Au   -0.00495   -0.01794   -0.03020
  3 Au    0.00281   -0.02606   -0.07190
  4 Au    0.03119    0.01801   -0.04158
  5 Au   -0.04139    0.01663   -0.05330
  6 Au   -0.01801    0.00468   -0.03020
  7 Au   -0.00629   -0.04416   -0.05330
  8 Au    0.01847    0.01066   -0.03682
  9 Au    0.02307   -0.00857    0.04015
 10 Au    0.00405    0.00234   -0.11821
 11 Au   -0.02398    0.00394    0.02611
 12 Au    0.00376   -0.00455    0.04164
 13 Au   -0.00858   -0.02274    0.02611
 14 Au    0.00752    0.00434   -0.02355
 15 Au    0.00284    0.00164   -0.03320
 16 Au    0.00411    0.02426    0.04015
 17 Au   -0.00206    0.00554    0.04164
 18 Au   -0.06154   -0.03553    0.01314
 19 Au    0.00461   -0.27215    0.17214
 20 Au    0.06909   -0.04123    0.01531
 21 Au   -0.23339    0.14007    0.17214
 22 Au    0.24500    0.14145    0.16989
 23 Au   -0.00214   -0.01447    0.06441
 24 Au   -0.00116    0.08045    0.01531
 25 Au   -0.01360    0.00538    0.06441
 26 Au    0.01872    0.01081    0.06733
 27 O     0.00473    0.00273   -0.34111
 28 C     0.00162    0.00094    0.02080

System changes: positions 

Initializing position-dependent things.

Density initialized from wave functions
                                              
                                              
                                              
                                              
                                              
                                              
                                              
               O                              
                                              
               C  Au     Au     Au            
                                              
            Au     AAu    AAu    Au           
       Au     Au     AAu    Au                
                                              
        Au     Au     AAu    Au     Au        
                                              
                 Au     Au     Au             
                                              
           Au      Au     Au                  
                                              
                                              
                                              
                                              

Positions:
   0 Au     1.476793    0.852627    6.000000    ( 0.0000,  0.0000,  0.0000)
   1 Au     4.430378    0.852627    6.000000    ( 0.0000,  0.0000,  0.0000)
   2 Au     7.383963    0.852627    6.000000    ( 0.0000,  0.0000,  0.0000)
   3 Au     2.953585    3.410506    6.000000    ( 0.0000,  0.0000,  0.0000)
   4 Au     5.907170    3.410506    6.000000    ( 0.0000,  0.0000,  0.0000)
   5 Au     8.860755    3.410506    6.000000    ( 0.0000,  0.0000,  0.0000)
   6 Au     4.430378    5.968386    6.000000    ( 0.0000,  0.0000,  0.0000)
   7 Au     7.383963    5.968386    6.000000    ( 0.0000,  0.0000,  0.0000)
   8 Au    10.337548    5.968386    6.000000    ( 0.0000,  0.0000,  0.0000)
   9 Au    -0.000000    1.705253    8.411592    ( 0.0000,  0.0000,  0.0000)
  10 Au     2.953585    1.705253    8.411592    ( 0.0000,  0.0000,  0.0000)
  11 Au     5.907170    1.705253    8.411592    ( 0.0000,  0.0000,  0.0000)
  12 Au     1.476793    4.263133    8.411592    ( 0.0000,  0.0000,  0.0000)
  13 Au     4.430378    4.263133    8.411592    ( 0.0000,  0.0000,  0.0000)
  14 Au     7.383963    4.263133    8.411592    ( 0.0000,  0.0000,  0.0000)
  15 Au     2.953585    6.821012    8.411592    ( 0.0000,  0.0000,  0.0000)
  16 Au     5.907170    6.821012    8.411592    ( 0.0000,  0.0000,  0.0000)
  17 Au     8.860755    6.821012    8.411592    ( 0.0000,  0.0000,  0.0000)
  18 Au     0.000000    0.000000   10.823184    ( 0.0000,  0.0000,  0.0000)
  19 Au     2.953585    0.000000   10.823184    ( 0.0000,  0.0000,  0.0000)
  20 Au     5.907170    0.000000   10.823184    ( 0.0000,  0.0000,  0.0000)
  21 Au     1.476793    2.557880   10.823184    ( 0.0000,  0.0000,  0.0000)
  22 Au     4.430378    2.557880   10.823184    ( 0.0000,  0.0000,  0.0000)
  23 Au     7.383963    2.557880   10.823184    ( 0.0000,  0.0000,  0.0000)
  24 Au     2.953585    5.115759   10.823184    ( 0.0000,  0.0000,  0.0000)
  25 Au     5.907170    5.115759   10.823184    ( 0.0000,  0.0000,  0.0000)
  26 Au     8.860755    5.115759   10.823184    ( 0.0000,  0.0000,  0.0000)
  27 O      2.953585    1.705253   13.973524    ( 0.0000,  0.0000,  0.0000)
  28 C      2.940721    1.697826   12.818975    ( 0.0000,  0.0000,  0.0000)

Unit cell:
           periodic     x           y           z      points  spacing
  1. axis:    yes    8.860755    0.000000    0.000000    45     0.1705
  2. axis:    yes    4.430378    7.673639    0.000000    45     0.1705
  3. axis:    no     0.000000    0.000000   16.823184    84     0.2003

  Lengths:   8.860755   8.860755  16.823184
  Angles:   90.000000  90.000000  60.000000

Effective grid spacing dv^(1/3) = 0.1888

     iter     time        total  log10-change:
                         energy  eigst   dens
iter:   1 10:09:55   -92.870739  -6.22
iter:   2 10:10:01   -92.870731  -8.08c -4.40c
iter:   3 10:10:06   -92.870727c -6.53  -4.50c
iter:   4 10:10:12   -92.870723c -8.44c -5.06c

Converged after 4 iterations.

Dipole moment: (-0.742333, -0.428586, 0.096085) |e|*Ang

Energy contributions relative to reference atoms: (reference = -13951221.800367)

Kinetic:       -294.688031
Potential:     +233.854675
External:        +0.000000
XC:             -34.887431
Entropy (-ST):   -0.303289
Local:           +3.001708
--------------------------
Free energy:    -93.022368
Extrapolated:   -92.870723

Showing only first 2 kpts
 Kpt  Band  Eigenvalues  Occupancy
  0   151     -0.19814    1.99999
  0   152      0.18272    1.99957
  0   153      0.50706    1.98910
  0   154      0.61078    1.96956

  1   151     -0.26013    1.99999
  1   152     -0.21358    1.99999
  1   153     -0.04386    1.99996
  1   154      0.38112    1.99690


Fermi level: 1.02777

No gap

Forces in eV/Ang:
  0 Au    0.01933    0.01116   -0.05881
  1 Au   -0.02173    0.01486   -0.07115
  2 Au   -0.00387   -0.01810   -0.02905
  3 Au    0.00200   -0.02624   -0.07115
  4 Au    0.03189    0.01841   -0.04073
  5 Au   -0.04133    0.01642   -0.05207
  6 Au   -0.01761    0.00570   -0.02905
  7 Au   -0.00644   -0.04401   -0.05207
  8 Au    0.01820    0.01051   -0.03582
  9 Au    0.02286   -0.00894    0.03801
 10 Au    0.00373    0.00216   -0.11848
 11 Au   -0.02383    0.00361    0.02705
 12 Au    0.00292   -0.00449    0.04133
 13 Au   -0.00879   -0.02244    0.02705
 14 Au    0.00872    0.00503   -0.02412
 15 Au    0.00374    0.00216   -0.03373
 16 Au    0.00368    0.02427    0.03801
 17 Au   -0.00243    0.00478    0.04133
 18 Au   -0.06230   -0.03597    0.01301
 19 Au    0.00453   -0.26966    0.17398
 20 Au    0.06848   -0.04028    0.01500
 21 Au   -0.23127    0.13875    0.17398
 22 Au    0.24799    0.14317    0.16664
 23 Au   -0.00603   -0.01409    0.06412
 24 Au   -0.00064    0.07945    0.01500
 25 Au   -0.01522    0.00182    0.06412
 26 Au    0.01967    0.01136    0.06673
 27 O    -0.00708   -0.00409   -0.32670
 28 C    -0.01959   -0.01131    0.00854

System changes: positions 

Initializing position-dependent things.

Density initialized from wave functions
                                              
                                              
                                              
                                              
                                              
                                              
                                              
               O                              
                                              
               C  Au     Au     Au            
                                              
            Au     AAu    AAu    Au           
       Au     Au     AAu    Au                
                                              
        Au     Au     AAu    Au     Au        
                                              
                 Au     Au     Au             
                                              
           Au      Au     Au                  
                                              
                                              
                                              
                                              

Positions:
   0 Au     1.476793    0.852627    6.000000    ( 0.0000,  0.0000,  0.0000)
   1 Au     4.430378    0.852627    6.000000    ( 0.0000,  0.0000,  0.0000)
   2 Au     7.383963    0.852627    6.000000    ( 0.0000,  0.0000,  0.0000)
   3 Au     2.953585    3.410506    6.000000    ( 0.0000,  0.0000,  0.0000)
   4 Au     5.907170    3.410506    6.000000    ( 0.0000,  0.0000,  0.0000)
   5 Au     8.860755    3.410506    6.000000    ( 0.0000,  0.0000,  0.0000)
   6 Au     4.430378    5.968386    6.000000    ( 0.0000,  0.0000,  0.0000)
   7 Au     7.383963    5.968386    6.000000    ( 0.0000,  0.0000,  0.0000)
   8 Au    10.337548    5.968386    6.000000    ( 0.0000,  0.0000,  0.0000)
   9 Au    -0.000000    1.705253    8.411592    ( 0.0000,  0.0000,  0.0000)
  10 Au     2.953585    1.705253    8.411592    ( 0.0000,  0.0000,  0.0000)
  11 Au     5.907170    1.705253    8.411592    ( 0.0000,  0.0000,  0.0000)
  12 Au     1.476793    4.263133    8.411592    ( 0.0000,  0.0000,  0.0000)
  13 Au     4.430378    4.263133    8.411592    ( 0.0000,  0.0000,  0.0000)
  14 Au     7.383963    4.263133    8.411592    ( 0.0000,  0.0000,  0.0000)
  15 Au     2.953585    6.821012    8.411592    ( 0.0000,  0.0000,  0.0000)
  16 Au     5.907170    6.821012    8.411592    ( 0.0000,  0.0000,  0.0000)
  17 Au     8.860755    6.821012    8.411592    ( 0.0000,  0.0000,  0.0000)
  18 Au     0.000000    0.000000   10.823184    ( 0.0000,  0.0000,  0.0000)
  19 Au     2.953585    0.000000   10.823184    ( 0.0000,  0.0000,  0.0000)
  20 Au     5.907170    0.000000   10.823184    ( 0.0000,  0.0000,  0.0000)
  21 Au     1.476793    2.557880   10.823184    ( 0.0000,  0.0000,  0.0000)
  22 Au     4.430378    2.557880   10.823184    ( 0.0000,  0.0000,  0.0000)
  23 Au     7.383963    2.557880   10.823184    ( 0.0000,  0.0000,  0.0000)
  24 Au     2.953585    5.115759   10.823184    ( 0.0000,  0.0000,  0.0000)
  25 Au     5.907170    5.115759   10.823184    ( 0.0000,  0.0000,  0.0000)
  26 Au     8.860755    5.115759   10.823184    ( 0.0000,  0.0000,  0.0000)
  27 O      2.953585    1.705253   13.973524    ( 0.0000,  0.0000,  0.0000)
  28 C      2.623355    1.514595   12.861163    ( 0.0000,  0.0000,  0.0000)

Unit cell:
           periodic     x           y           z      points  spacing
  1. axis:    yes    8.860755    0.000000    0.000000    45     0.1705
  2. axis:    yes    4.430378    7.673639    0.000000    45     0.1705
  3. axis:    no     0.000000    0.000000   16.823184    84     0.2003

  Lengths:   8.860755   8.860755  16.823184
  Angles:   90.000000  90.000000  60.000000

Effective grid spacing dv^(1/3) = 0.1888

     iter     time        total  log10-change:
                         energy  eigst   dens
iter:   1 10:10:20   -93.722290  -0.97
iter:   2 10:10:25   -93.362337  -2.23  -2.16
iter:   3 10:10:31   -93.012695  -2.69  -2.35
iter:   4 10:10:36   -92.921936  -3.02  -2.54
iter:   5 10:10:42   -92.890882c -3.12  -2.61
iter:   6 10:10:47   -92.876334c -3.69  -2.70
iter:   7 10:10:52   -92.860850c -3.61  -2.73
iter:   8 10:10:58   -92.860340c -4.69  -3.20
iter:   9 10:11:03   -92.859974c -5.26  -3.27
iter:  10 10:11:09   -92.859927c -4.83  -3.33
iter:  11 10:11:14   -92.858678c -4.85  -3.37
iter:  12 10:11:20   -92.858639c -5.96  -3.80
iter:  13 10:11:25   -92.858549c -5.67  -3.82
iter:  14 10:11:31   -92.858552c -6.44  -4.16c
iter:  15 10:11:36   -92.858556c -6.54  -4.18c
iter:  16 10:11:42   -92.858560c -7.36  -4.50c
iter:  17 10:11:47   -92.858545c -7.26  -4.51c
iter:  18 10:11:53   -92.858545c -7.90c -4.59c

Converged after 18 iterations.

Dipole moment: (-0.873716, -0.504440, 0.072972) |e|*Ang

Energy contributions relative to reference atoms: (reference = -13951221.800367)

Kinetic:       -297.166900
Potential:     +235.767893
External:        +0.000000
XC:             -34.316348
Entropy (-ST):   -0.298479
Local:           +3.006049
--------------------------
Free energy:    -93.007785
Extrapolated:   -92.858545

Showing only first 2 kpts
 Kpt  Band  Eigenvalues  Occupancy
  0   151     -0.20312    1.99999
  0   152      0.14694    1.99969
  0   153      0.50735    1.98855
  0   154      0.58017    1.97643

  1   151     -0.26186    1.99999
  1   152     -0.22054    1.99999
  1   153     -0.04973    1.99996
  1   154      0.31908    1.99825


Fermi level: 1.02306

No gap

Forces in eV/Ang:
  0 Au    0.02017    0.01164   -0.06254
  1 Au   -0.00550    0.01175   -0.06116
  2 Au   -0.01767   -0.00582   -0.03002
  3 Au    0.00742   -0.01064   -0.06116
  4 Au    0.02125    0.01227   -0.04569
  5 Au   -0.03778    0.00863   -0.05149
  6 Au   -0.01387   -0.01239   -0.03002
  7 Au   -0.01142   -0.03704   -0.05149
  8 Au    0.01879    0.01085   -0.03019
  9 Au    0.03174   -0.00714    0.05095
 10 Au    0.00013    0.00008   -0.09113
 11 Au   -0.00229   -0.00083    0.00022
 12 Au    0.00166   -0.00673    0.04727
 13 Au   -0.00187   -0.00157    0.00022
 14 Au   -0.00721   -0.00416   -0.01580
 15 Au   -0.01304   -0.00753   -0.03344
 16 Au    0.00969    0.03106    0.05095
 17 Au   -0.00500    0.00480    0.04727
 18 Au   -0.16287   -0.09403   -0.03848
 19 Au    0.08555   -0.19427    0.27431
 20 Au    0.04510   -0.00910    0.02626
 21 Au   -0.12547    0.17122    0.27431
 22 Au    0.28914    0.16694   -0.04532
 23 Au   -0.01731   -0.00812    0.05042
 24 Au    0.01467    0.04360    0.02626
 25 Au   -0.01569   -0.01093    0.05042
 26 Au    0.01062    0.00613    0.07448
 27 O    -0.71290   -0.41160   -2.25327
 28 C     0.60660    0.35022    1.96354

System changes: positions 

Initializing position-dependent things.

Density initialized from wave functions
                                              
                                              
                                              
                                              
                                              
                                              
                                              
               O                              
                                              
               C  Au     Au     Au            
                                              
            Au     AAu    AAu    Au           
       Au     Au     AAu    Au                
                                              
        Au     Au     AAu    Au     Au        
                                              
                 Au     Au     Au             
                                              
           Au      Au     Au                  
                                              
                                              
                                              
                                              

Positions:
   0 Au     1.476793    0.852627    6.000000    ( 0.0000,  0.0000,  0.0000)
   1 Au     4.430378    0.852627    6.000000    ( 0.0000,  0.0000,  0.0000)
   2 Au     7.383963    0.852627    6.000000    ( 0.0000,  0.0000,  0.0000)
   3 Au     2.953585    3.410506    6.000000    ( 0.0000,  0.0000,  0.0000)
   4 Au     5.907170    3.410506    6.000000    ( 0.0000,  0.0000,  0.0000)
   5 Au     8.860755    3.410506    6.000000    ( 0.0000,  0.0000,  0.0000)
   6 Au     4.430378    5.968386    6.000000    ( 0.0000,  0.0000,  0.0000)
   7 Au     7.383963    5.968386    6.000000    ( 0.0000,  0.0000,  0.0000)
   8 Au    10.337548    5.968386    6.000000    ( 0.0000,  0.0000,  0.0000)
   9 Au    -0.000000    1.705253    8.411592    ( 0.0000,  0.0000,  0.0000)
  10 Au     2.953585    1.705253    8.411592    ( 0.0000,  0.0000,  0.0000)
  11 Au     5.907170    1.705253    8.411592    ( 0.0000,  0.0000,  0.0000)
  12 Au     1.476793    4.263133    8.411592    ( 0.0000,  0.0000,  0.0000)
  13 Au     4.430378    4.263133    8.411592    ( 0.0000,  0.0000,  0.0000)
  14 Au     7.383963    4.263133    8.411592    ( 0.0000,  0.0000,  0.0000)
  15 Au     2.953585    6.821012    8.411592    ( 0.0000,  0.0000,  0.0000)
  16 Au     5.907170    6.821012    8.411592    ( 0.0000,  0.0000,  0.0000)
  17 Au     8.860755    6.821012    8.411592    ( 0.0000,  0.0000,  0.0000)
  18 Au     0.000000    0.000000   10.823184    ( 0.0000,  0.0000,  0.0000)
  19 Au     2.953585    0.000000   10.823184    ( 0.0000,  0.0000,  0.0000)
  20 Au     5.907170    0.000000   10.823184    ( 0.0000,  0.0000,  0.0000)
  21 Au     1.476793    2.557880   10.823184    ( 0.0000,  0.0000,  0.0000)
  22 Au     4.430378    2.557880   10.823184    ( 0.0000,  0.0000,  0.0000)
  23 Au     7.383963    2.557880   10.823184    ( 0.0000,  0.0000,  0.0000)
  24 Au     2.953585    5.115759   10.823184    ( 0.0000,  0.0000,  0.0000)
  25 Au     5.907170    5.115759   10.823184    ( 0.0000,  0.0000,  0.0000)
  26 Au     8.860755    5.115759   10.823184    ( 0.0000,  0.0000,  0.0000)
  27 O      2.953585    1.705253   13.973524    ( 0.0000,  0.0000,  0.0000)
  28 C      2.653645    1.532083   12.873703    ( 0.0000,  0.0000,  0.0000)

Unit cell:
           periodic     x           y           z      points  spacing
  1. axis:    yes    8.860755    0.000000    0.000000    45     0.1705
  2. axis:    yes    4.430378    7.673639    0.000000    45     0.1705
  3. axis:    no     0.000000    0.000000   16.823184    84     0.2003

  Lengths:   8.860755   8.860755  16.823184
  Angles:   90.000000  90.000000  60.000000

Effective grid spacing dv^(1/3) = 0.1888

     iter     time        total  log10-change:
                         energy  eigst   dens
iter:   1 10:12:00   -92.966086  -2.88
iter:   2 10:12:06   -92.923282  -3.99  -2.64
iter:   3 10:12:11   -92.895472c -3.87  -2.90
iter:   4 10:12:17   -92.887231c -4.26  -3.09
iter:   5 10:12:22   -92.884821c -4.64  -3.15
iter:   6 10:12:28   -92.885188c -4.82  -3.49
iter:   7 10:12:33   -92.883640c -4.83  -3.42
iter:   8 10:12:39   -92.883621c -6.29  -3.89
iter:   9 10:12:44   -92.883640c -5.90  -3.94
iter:  10 10:12:50   -92.883605c -6.70  -4.14c
iter:  11 10:12:55   -92.883595c -7.19  -4.35c
iter:  12 10:13:00   -92.883605c -6.97  -4.44c
iter:  13 10:13:06   -92.883607c -7.79c -4.56c

Converged after 13 iterations.

Dipole moment: (-0.898030, -0.518478, 0.121888) |e|*Ang

Energy contributions relative to reference atoms: (reference = -13951221.800367)

Kinetic:       -294.109480
Potential:     +233.251518
External:        +0.000000
XC:             -34.884700
Entropy (-ST):   -0.297909
Local:           +3.008009
--------------------------
Free energy:    -93.032561
Extrapolated:   -92.883607

Showing only first 2 kpts
 Kpt  Band  Eigenvalues  Occupancy
  0   151     -0.18967    1.99999
  0   152      0.15920    1.99970
  0   153      0.52119    1.98873
  0   154      0.59548    1.97646

  1   151     -0.24867    1.99999
  1   152     -0.20551    1.99999
  1   153     -0.03559    1.99996
  1   154      0.32704    1.99838


Fermi level: 1.03853

No gap

Forces in eV/Ang:
  0 Au    0.02138    0.01235   -0.06385
  1 Au   -0.00687    0.01189   -0.06393
  2 Au   -0.01769   -0.00757   -0.03356
  3 Au    0.00686   -0.01189   -0.06393
  4 Au    0.02198    0.01269   -0.04816
  5 Au   -0.03788    0.00989   -0.05466
  6 Au   -0.01540   -0.01154   -0.03356
  7 Au   -0.01037   -0.03775   -0.05466
  8 Au    0.01962    0.01133   -0.03450
  9 Au    0.03256   -0.00803    0.05184
 10 Au    0.00229    0.00132   -0.08620
 11 Au   -0.00660    0.00006    0.00294
 12 Au    0.00434   -0.00585    0.04599
 13 Au   -0.00325   -0.00575    0.00294
 14 Au   -0.00764   -0.00441   -0.01689
 15 Au   -0.01314   -0.00759   -0.03413
 16 Au    0.00932    0.03221    0.05184
 17 Au   -0.00290    0.00668    0.04599
 18 Au   -0.14635   -0.08449   -0.03150
 19 Au    0.07791   -0.21028    0.23316
 20 Au    0.04339   -0.00852    0.02421
 21 Au   -0.14316    0.17261    0.23316
 22 Au    0.29542    0.17056   -0.05304
 23 Au   -0.01550   -0.01017    0.05236
 24 Au    0.01431    0.04183    0.02421
 25 Au   -0.01655   -0.00833    0.05236
 26 Au    0.01207    0.00697    0.07509
 27 O    -0.11506   -0.06643   -0.25679
 28 C    -0.00144   -0.00083    0.04548

System changes: positions 

Initializing position-dependent things.

Density initialized from wave functions
                                              
                                              
                                              
                                              
                                              
                                              
                                              
               O                              
                                              
               C  Au     Au     Au            
                                              
            Au     AAu    AAu    Au           
       Au     Au     AAu    Au                
                                              
        Au     Au     AAu    Au     Au        
                                              
                 Au     Au     Au             
                                              
           Au      Au     Au                  
                                              
                                              
                                              
                                              

Positions:
   0 Au     1.476793    0.852627    6.000000    ( 0.0000,  0.0000,  0.0000)
   1 Au     4.430378    0.852627    6.000000    ( 0.0000,  0.0000,  0.0000)
   2 Au     7.383963    0.852627    6.000000    ( 0.0000,  0.0000,  0.0000)
   3 Au     2.953585    3.410506    6.000000    ( 0.0000,  0.0000,  0.0000)
   4 Au     5.907170    3.410506    6.000000    ( 0.0000,  0.0000,  0.0000)
   5 Au     8.860755    3.410506    6.000000    ( 0.0000,  0.0000,  0.0000)
   6 Au     4.430378    5.968386    6.000000    ( 0.0000,  0.0000,  0.0000)
   7 Au     7.383963    5.968386    6.000000    ( 0.0000,  0.0000,  0.0000)
   8 Au    10.337548    5.968386    6.000000    ( 0.0000,  0.0000,  0.0000)
   9 Au    -0.000000    1.705253    8.411592    ( 0.0000,  0.0000,  0.0000)
  10 Au     2.953585    1.705253    8.411592    ( 0.0000,  0.0000,  0.0000)
  11 Au     5.907170    1.705253    8.411592    ( 0.0000,  0.0000,  0.0000)
  12 Au     1.476793    4.263133    8.411592    ( 0.0000,  0.0000,  0.0000)
  13 Au     4.430378    4.263133    8.411592    ( 0.0000,  0.0000,  0.0000)
  14 Au     7.383963    4.263133    8.411592    ( 0.0000,  0.0000,  0.0000)
  15 Au     2.953585    6.821012    8.411592    ( 0.0000,  0.0000,  0.0000)
  16 Au     5.907170    6.821012    8.411592    ( 0.0000,  0.0000,  0.0000)
  17 Au     8.860755    6.821012    8.411592    ( 0.0000,  0.0000,  0.0000)
  18 Au     0.000000    0.000000   10.823184    ( 0.0000,  0.0000,  0.0000)
  19 Au     2.953585    0.000000   10.823184    ( 0.0000,  0.0000,  0.0000)
  20 Au     5.907170    0.000000   10.823184    ( 0.0000,  0.0000,  0.0000)
  21 Au     1.476793    2.557880   10.823184    ( 0.0000,  0.0000,  0.0000)
  22 Au     4.430378    2.557880   10.823184    ( 0.0000,  0.0000,  0.0000)
  23 Au     7.383963    2.557880   10.823184    ( 0.0000,  0.0000,  0.0000)
  24 Au     2.953585    5.115759   10.823184    ( 0.0000,  0.0000,  0.0000)
  25 Au     5.907170    5.115759   10.823184    ( 0.0000,  0.0000,  0.0000)
  26 Au     8.860755    5.115759   10.823184    ( 0.0000,  0.0000,  0.0000)
  27 O      2.953585    1.705253   13.973524    ( 0.0000,  0.0000,  0.0000)
  28 C      2.645682    1.527485   12.877155    ( 0.0000,  0.0000,  0.0000)

Unit cell:
           periodic     x           y           z      points  spacing
  1. axis:    yes    8.860755    0.000000    0.000000    45     0.1705
  2. axis:    yes    4.430378    7.673639    0.000000    45     0.1705
  3. axis:    no     0.000000    0.000000   16.823184    84     0.2003

  Lengths:   8.860755   8.860755  16.823184
  Angles:   90.000000  90.000000  60.000000

Effective grid spacing dv^(1/3) = 0.1888

     iter     time        total  log10-change:
                         energy  eigst   dens
iter:   1 10:13:14   -92.884021  -4.20
iter:   2 10:13:19   -92.883968  -5.48  -3.87
iter:   3 10:13:24   -92.883876c -5.71  -3.98
iter:   4 10:13:30   -92.883873c -6.69  -4.25c
iter:   5 10:13:35   -92.883879c -6.56  -4.29c
iter:   6 10:13:41   -92.883885c -7.11  -4.56c
iter:   7 10:13:46   -92.883859c -6.98  -4.52c
iter:   8 10:13:52   -92.883857c -7.75c -4.85c

Converged after 8 iterations.

Dipole moment: (-0.904325, -0.522112, 0.122282) |e|*Ang

Energy contributions relative to reference atoms: (reference = -13951221.800367)

Kinetic:       -294.261827
Potential:     +233.402984
External:        +0.000000
XC:             -34.875973
Entropy (-ST):   -0.297792
Local:           +2.999854
--------------------------
Free energy:    -93.032753
Extrapolated:   -92.883857

Showing only first 2 kpts
 Kpt  Band  Eigenvalues  Occupancy
  0   151     -0.18950    1.99999
  0   152      0.15766    1.99970
  0   153      0.52140    1.98873
  0   154      0.59426    1.97679

  1   151     -0.24843    1.99999
  1   152     -0.20528    1.99999
  1   153     -0.03547    1.99996
  1   154      0.32355    1.99843


Fermi level: 1.03871

No gap

Forces in eV/Ang:
  0 Au    0.02243    0.01295   -0.06190
  1 Au   -0.00743    0.01240   -0.06183
  2 Au   -0.01819   -0.00674   -0.03066
  3 Au    0.00703   -0.01263   -0.06183
  4 Au    0.02084    0.01203   -0.04608
  5 Au   -0.03696    0.00949   -0.05208
  6 Au   -0.01493   -0.01238   -0.03066
  7 Au   -0.01027   -0.03675   -0.05208
  8 Au    0.01897    0.01095   -0.03166
  9 Au    0.03040   -0.00850    0.05025
 10 Au    0.00156    0.00090   -0.09003
 11 Au   -0.00368   -0.00047    0.00001
 12 Au    0.00302   -0.00364    0.04355
 13 Au   -0.00225   -0.00295    0.00001
 14 Au   -0.00737   -0.00425   -0.01692
 15 Au   -0.01333   -0.00770   -0.03459
 16 Au    0.00784    0.03058    0.05025
 17 Au   -0.00164    0.00443    0.04355
 18 Au   -0.14883   -0.08593   -0.02798
 19 Au    0.07724   -0.20827    0.23786
 20 Au    0.04578   -0.01029    0.02849
 21 Au   -0.14175    0.17103    0.23786
 22 Au    0.29232    0.16877   -0.05108
 23 Au   -0.01324   -0.00956    0.05646
 24 Au    0.01398    0.04479    0.02849
 25 Au   -0.01490   -0.00669    0.05646
 26 Au    0.01069    0.00617    0.07937
 27 O    -0.09723   -0.05613   -0.21917
 28 C     0.00489    0.00282    0.00890

System changes: positions 

Initializing position-dependent things.

Density initialized from wave functions
                                              
                                              
                                              
                                              
                                              
                                              
                                              
               O                              
                                              
               C  Au     Au     Au            
                                              
            Au     AAu    AAu    Au           
       Au     Au     AAu    Au                
                                              
        Au     Au     AAu    Au     Au        
                                              
                 Au     Au     Au             
                                              
           Au      Au     Au                  
                                              
                                              
                                              
                                              

Positions:
   0 Au     1.476793    0.852627    6.000000    ( 0.0000,  0.0000,  0.0000)
   1 Au     4.430378    0.852627    6.000000    ( 0.0000,  0.0000,  0.0000)
   2 Au     7.383963    0.852627    6.000000    ( 0.0000,  0.0000,  0.0000)
   3 Au     2.953585    3.410506    6.000000    ( 0.0000,  0.0000,  0.0000)
   4 Au     5.907170    3.410506    6.000000    ( 0.0000,  0.0000,  0.0000)
   5 Au     8.860755    3.410506    6.000000    ( 0.0000,  0.0000,  0.0000)
   6 Au     4.430378    5.968386    6.000000    ( 0.0000,  0.0000,  0.0000)
   7 Au     7.383963    5.968386    6.000000    ( 0.0000,  0.0000,  0.0000)
   8 Au    10.337548    5.968386    6.000000    ( 0.0000,  0.0000,  0.0000)
   9 Au    -0.000000    1.705253    8.411592    ( 0.0000,  0.0000,  0.0000)
  10 Au     2.953585    1.705253    8.411592    ( 0.0000,  0.0000,  0.0000)
  11 Au     5.907170    1.705253    8.411592    ( 0.0000,  0.0000,  0.0000)
  12 Au     1.476793    4.263133    8.411592    ( 0.0000,  0.0000,  0.0000)
  13 Au     4.430378    4.263133    8.411592    ( 0.0000,  0.0000,  0.0000)
  14 Au     7.383963    4.263133    8.411592    ( 0.0000,  0.0000,  0.0000)
  15 Au     2.953585    6.821012    8.411592    ( 0.0000,  0.0000,  0.0000)
  16 Au     5.907170    6.821012    8.411592    ( 0.0000,  0.0000,  0.0000)
  17 Au     8.860755    6.821012    8.411592    ( 0.0000,  0.0000,  0.0000)
  18 Au     0.000000    0.000000   10.823184    ( 0.0000,  0.0000,  0.0000)
  19 Au     2.953585    0.000000   10.823184    ( 0.0000,  0.0000,  0.0000)
  20 Au     5.907170    0.000000   10.823184    ( 0.0000,  0.0000,  0.0000)
  21 Au     1.476793    2.557880   10.823184    ( 0.0000,  0.0000,  0.0000)
  22 Au     4.430378    2.557880   10.823184    ( 0.0000,  0.0000,  0.0000)
  23 Au     7.383963    2.557880   10.823184    ( 0.0000,  0.0000,  0.0000)
  24 Au     2.953585    5.115759   10.823184    ( 0.0000,  0.0000,  0.0000)
  25 Au     5.907170    5.115759   10.823184    ( 0.0000,  0.0000,  0.0000)
  26 Au     8.860755    5.115759   10.823184    ( 0.0000,  0.0000,  0.0000)
  27 O      2.953585    1.705253   13.973524    ( 0.0000,  0.0000,  0.0000)
  28 C      2.645698    1.527494   12.877238    ( 0.0000,  0.0000,  0.0000)

Unit cell:
           periodic     x           y           z      points  spacing
  1. axis:    yes    8.860755    0.000000    0.000000    45     0.1705
  2. axis:    yes    4.430378    7.673639    0.000000    45     0.1705
  3. axis:    no     0.000000    0.000000   16.823184    84     0.2003

  Lengths:   8.860755   8.860755  16.823184
  Angles:   90.000000  90.000000  60.000000

Effective grid spacing dv^(1/3) = 0.1888

     iter     time        total  log10-change:
                         energy  eigst   dens
iter:   1 10:13:59   -92.883949  -6.21
iter:   2 10:14:05   -92.883913  -7.86c -4.22c
iter:   3 10:14:10   -92.883863c -6.69  -4.39c
iter:   4 10:14:16   -92.883867c -8.19c -4.99c

Converged after 4 iterations.

Dipole moment: (-0.903958, -0.521901, 0.122739) |e|*Ang

Energy contributions relative to reference atoms: (reference = -13951221.800367)

Kinetic:       -294.198408
Potential:     +233.344070
External:        +0.000000
XC:             -34.879759
Entropy (-ST):   -0.297770
Local:           +2.999115
--------------------------
Free energy:    -93.032752
Extrapolated:   -92.883867

Showing only first 2 kpts
 Kpt  Band  Eigenvalues  Occupancy
  0   151     -0.18962    1.99999
  0   152      0.15757    1.99970
  0   153      0.52132    1.98872
  0   154      0.59418    1.97677

  1   151     -0.24857    1.99999
  1   152     -0.20540    1.99999
  1   153     -0.03562    1.99996
  1   154      0.32352    1.99843


Fermi level: 1.03856

No gap

Forces in eV/Ang:
  0 Au    0.02087    0.01205   -0.06398
  1 Au   -0.00695    0.01145   -0.06433
  2 Au   -0.01707   -0.00708   -0.03324
  3 Au    0.00644   -0.01175   -0.06433
  4 Au    0.02236    0.01291   -0.04838
  5 Au   -0.03786    0.00942   -0.05448
  6 Au   -0.01467   -0.01124   -0.03324
  7 Au   -0.01077   -0.03750   -0.05448
  8 Au    0.01924    0.01111   -0.03431
  9 Au    0.03033   -0.00890    0.04949
 10 Au    0.00153    0.00088   -0.08619
 11 Au   -0.00362   -0.00068    0.00151
 12 Au    0.00318   -0.00388    0.04453
 13 Au   -0.00240   -0.00279    0.00151
 14 Au   -0.00739   -0.00426   -0.01771
 15 Au   -0.01268   -0.00732   -0.03537
 16 Au    0.00745    0.03072    0.04949
 17 Au   -0.00177    0.00469    0.04453
 18 Au   -0.14619   -0.08440   -0.02673
 19 Au    0.07589   -0.20889    0.23698
 20 Au    0.04392   -0.00893    0.02747
 21 Au   -0.14296    0.17017    0.23698
 22 Au    0.29611    0.17096   -0.05554
 23 Au   -0.01572   -0.00983    0.05613
 24 Au    0.01423    0.04250    0.02747
 25 Au   -0.01637   -0.00870    0.05613
 26 Au    0.01199    0.00692    0.07849
 27 O    -0.11162   -0.06445   -0.21729
 28 C    -0.02043   -0.01179    0.01511

System changes: positions 

Initializing position-dependent things.

Density initialized from wave functions
                                              
                                              
                                              
                                              
                                              
                                              
                                              
               O                              
                                              
               C  Au     Au     Au            
                                              
            Au     AAu    AAu    Au           
       Au     Au     AAu    Au                
                                              
        Au     Au     AAu    Au     Au        
                                              
                 Au     Au     Au             
                                              
           Au      Au     Au                  
                                              
                                              
                                              
                                              

Positions:
   0 Au     1.476793    0.852627    6.000000    ( 0.0000,  0.0000,  0.0000)
   1 Au     4.430378    0.852627    6.000000    ( 0.0000,  0.0000,  0.0000)
   2 Au     7.383963    0.852627    6.000000    ( 0.0000,  0.0000,  0.0000)
   3 Au     2.953585    3.410506    6.000000    ( 0.0000,  0.0000,  0.0000)
   4 Au     5.907170    3.410506    6.000000    ( 0.0000,  0.0000,  0.0000)
   5 Au     8.860755    3.410506    6.000000    ( 0.0000,  0.0000,  0.0000)
   6 Au     4.430378    5.968386    6.000000    ( 0.0000,  0.0000,  0.0000)
   7 Au     7.383963    5.968386    6.000000    ( 0.0000,  0.0000,  0.0000)
   8 Au    10.337548    5.968386    6.000000    ( 0.0000,  0.0000,  0.0000)
   9 Au    -0.000000    1.705253    8.411592    ( 0.0000,  0.0000,  0.0000)
  10 Au     2.953585    1.705253    8.411592    ( 0.0000,  0.0000,  0.0000)
  11 Au     5.907170    1.705253    8.411592    ( 0.0000,  0.0000,  0.0000)
  12 Au     1.476793    4.263133    8.411592    ( 0.0000,  0.0000,  0.0000)
  13 Au     4.430378    4.263133    8.411592    ( 0.0000,  0.0000,  0.0000)
  14 Au     7.383963    4.263133    8.411592    ( 0.0000,  0.0000,  0.0000)
  15 Au     2.953585    6.821012    8.411592    ( 0.0000,  0.0000,  0.0000)
  16 Au     5.907170    6.821012    8.411592    ( 0.0000,  0.0000,  0.0000)
  17 Au     8.860755    6.821012    8.411592    ( 0.0000,  0.0000,  0.0000)
  18 Au     0.000000    0.000000   10.823184    ( 0.0000,  0.0000,  0.0000)
  19 Au     2.953585    0.000000   10.823184    ( 0.0000,  0.0000,  0.0000)
  20 Au     5.907170    0.000000   10.823184    ( 0.0000,  0.0000,  0.0000)
  21 Au     1.476793    2.557880   10.823184    ( 0.0000,  0.0000,  0.0000)
  22 Au     4.430378    2.557880   10.823184    ( 0.0000,  0.0000,  0.0000)
  23 Au     7.383963    2.557880   10.823184    ( 0.0000,  0.0000,  0.0000)
  24 Au     2.953585    5.115759   10.823184    ( 0.0000,  0.0000,  0.0000)
  25 Au     5.907170    5.115759   10.823184    ( 0.0000,  0.0000,  0.0000)
  26 Au     8.860755    5.115759   10.823184    ( 0.0000,  0.0000,  0.0000)
  27 O      2.953585    1.705253   13.973524    ( 0.0000,  0.0000,  0.0000)
  28 C      2.628687    1.517673   12.884252    ( 0.0000,  0.0000,  0.0000)

Unit cell:
           periodic     x           y           z      points  spacing
  1. axis:    yes    8.860755    0.000000    0.000000    45     0.1705
  2. axis:    yes    4.430378    7.673639    0.000000    45     0.1705
  3. axis:    no     0.000000    0.000000   16.823184    84     0.2003

  Lengths:   8.860755   8.860755  16.823184
  Angles:   90.000000  90.000000  60.000000

Effective grid spacing dv^(1/3) = 0.1888

     iter     time        total  log10-change:
                         energy  eigst   dens
iter:   1 10:14:23   -92.884542  -3.59
iter:   2 10:14:29   -92.884541  -4.83  -3.79
iter:   3 10:14:34   -92.884401c -5.31  -3.86
iter:   4 10:14:40   -92.884415c -6.06  -4.03c
iter:   5 10:14:45   -92.884336c -6.13  -4.05c
iter:   6 10:14:51   -92.884331c -6.50  -4.27c
iter:   7 10:14:56   -92.884338c -6.52  -4.36c
iter:   8 10:15:02   -92.884339c -7.28  -4.54c
iter:   9 10:15:07   -92.884335c -7.89c -4.64c

Converged after 9 iterations.

Dipole moment: (-0.913737, -0.527546, 0.125157) |e|*Ang

Energy contributions relative to reference atoms: (reference = -13951221.800367)

Kinetic:       -294.199971
Potential:     +233.344793
External:        +0.000000
XC:             -34.879454
Entropy (-ST):   -0.297481
Local:           +2.999037
--------------------------
Free energy:    -93.033076
Extrapolated:   -92.884335

Showing only first 2 kpts
 Kpt  Band  Eigenvalues  Occupancy
  0   151     -0.18899    1.99999
  0   152      0.15488    1.99971
  0   153      0.52214    1.98871
  0   154      0.59235    1.97735

  1   151     -0.24778    1.99999
  1   152     -0.20454    1.99999
  1   153     -0.03512    1.99996
  1   154      0.31726    1.99854


Fermi level: 1.03928

No gap

Forces in eV/Ang:
  0 Au    0.02311    0.01334   -0.06518
  1 Au   -0.00666    0.01275   -0.06310
  2 Au   -0.01954   -0.00605   -0.03457
  3 Au    0.00771   -0.01215   -0.06310
  4 Au    0.01907    0.01101   -0.04934
  5 Au   -0.03591    0.00934   -0.05543
  6 Au   -0.01501   -0.01390   -0.03457
  7 Au   -0.00986   -0.03577   -0.05543
  8 Au    0.01867    0.01078   -0.03523
  9 Au    0.03162   -0.00745    0.04960
 10 Au    0.00369    0.00213   -0.08754
 11 Au   -0.00700    0.00055   -0.00020
 12 Au    0.00493   -0.00411    0.04258
 13 Au   -0.00302   -0.00634   -0.00020
 14 Au   -0.00867   -0.00501   -0.01720
 15 Au   -0.01618   -0.00934   -0.03630
 16 Au    0.00936    0.03111    0.04960
 17 Au   -0.00109    0.00633    0.04258
 18 Au   -0.14910   -0.08608   -0.02462
 19 Au    0.07723   -0.20476    0.23777
 20 Au    0.04350   -0.00868    0.03022
 21 Au   -0.13871    0.16926    0.23777
 22 Au    0.29188    0.16852   -0.06253
 23 Au   -0.01391   -0.00928    0.05925
 24 Au    0.01424    0.04201    0.03022
 25 Au   -0.01500   -0.00741    0.05925
 26 Au    0.01036    0.00598    0.08231
 27 O    -0.09473   -0.05469   -0.18239
 28 C     0.00058    0.00033   -0.01874

System changes: positions 

Initializing position-dependent things.

Density initialized from wave functions
                                              
                                              
                                              
                                              
                                              
                                              
                                              
               O                              
                                              
               C  Au     Au     Au            
                                              
            Au     AAu    AAu    Au           
       Au     Au     AAu    Au                
                                              
        Au     Au     AAu    Au     Au        
                                              
                 Au     Au     Au             
                                              
           Au      Au     Au                  
                                              
                                              
                                              
                                              

Positions:
   0 Au     1.476793    0.852627    6.000000    ( 0.0000,  0.0000,  0.0000)
   1 Au     4.430378    0.852627    6.000000    ( 0.0000,  0.0000,  0.0000)
   2 Au     7.383963    0.852627    6.000000    ( 0.0000,  0.0000,  0.0000)
   3 Au     2.953585    3.410506    6.000000    ( 0.0000,  0.0000,  0.0000)
   4 Au     5.907170    3.410506    6.000000    ( 0.0000,  0.0000,  0.0000)
   5 Au     8.860755    3.410506    6.000000    ( 0.0000,  0.0000,  0.0000)
   6 Au     4.430378    5.968386    6.000000    ( 0.0000,  0.0000,  0.0000)
   7 Au     7.383963    5.968386    6.000000    ( 0.0000,  0.0000,  0.0000)
   8 Au    10.337548    5.968386    6.000000    ( 0.0000,  0.0000,  0.0000)
   9 Au    -0.000000    1.705253    8.411592    ( 0.0000,  0.0000,  0.0000)
  10 Au     2.953585    1.705253    8.411592    ( 0.0000,  0.0000,  0.0000)
  11 Au     5.907170    1.705253    8.411592    ( 0.0000,  0.0000,  0.0000)
  12 Au     1.476793    4.263133    8.411592    ( 0.0000,  0.0000,  0.0000)
  13 Au     4.430378    4.263133    8.411592    ( 0.0000,  0.0000,  0.0000)
  14 Au     7.383963    4.263133    8.411592    ( 0.0000,  0.0000,  0.0000)
  15 Au     2.953585    6.821012    8.411592    ( 0.0000,  0.0000,  0.0000)
  16 Au     5.907170    6.821012    8.411592    ( 0.0000,  0.0000,  0.0000)
  17 Au     8.860755    6.821012    8.411592    ( 0.0000,  0.0000,  0.0000)
  18 Au     0.000000    0.000000   10.823184    ( 0.0000,  0.0000,  0.0000)
  19 Au     2.953585    0.000000   10.823184    ( 0.0000,  0.0000,  0.0000)
  20 Au     5.907170    0.000000   10.823184    ( 0.0000,  0.0000,  0.0000)
  21 Au     1.476793    2.557880   10.823184    ( 0.0000,  0.0000,  0.0000)
  22 Au     4.430378    2.557880   10.823184    ( 0.0000,  0.0000,  0.0000)
  23 Au     7.383963    2.557880   10.823184    ( 0.0000,  0.0000,  0.0000)
  24 Au     2.953585    5.115759   10.823184    ( 0.0000,  0.0000,  0.0000)
  25 Au     5.907170    5.115759   10.823184    ( 0.0000,  0.0000,  0.0000)
  26 Au     8.860755    5.115759   10.823184    ( 0.0000,  0.0000,  0.0000)
  27 O      2.953585    1.705253   13.973524    ( 0.0000,  0.0000,  0.0000)
  28 C      2.635016    1.521327   12.881514    ( 0.0000,  0.0000,  0.0000)

Unit cell:
           periodic     x           y           z      points  spacing
  1. axis:    yes    8.860755    0.000000    0.000000    45     0.1705
  2. axis:    yes    4.430378    7.673639    0.000000    45     0.1705
  3. axis:    no     0.000000    0.000000   16.823184    84     0.2003

  Lengths:   8.860755   8.860755  16.823184
  Angles:   90.000000  90.000000  60.000000

Effective grid spacing dv^(1/3) = 0.1888

     iter     time        total  log10-change:
                         energy  eigst   dens
iter:   1 10:15:15   -92.884199  -4.40
iter:   2 10:15:20   -92.884194  -5.65  -3.99
iter:   3 10:15:26   -92.884190c -6.05  -4.10c
iter:   4 10:15:31   -92.884190c -6.72  -4.36c
iter:   5 10:15:37   -92.884164c -7.06  -4.39c
iter:   6 10:15:42   -92.884156c -7.20  -4.64c
iter:   7 10:15:47   -92.884169c -7.24  -4.66c
iter:   8 10:15:53   -92.884169c -8.49c -4.98c

Converged after 8 iterations.

Dipole moment: (-0.910354, -0.525593, 0.123965) |e|*Ang

Energy contributions relative to reference atoms: (reference = -13951221.800367)

Kinetic:       -294.205324
Potential:     +233.349803
External:        +0.000000
XC:             -34.878222
Entropy (-ST):   -0.297592
Local:           +2.998370
--------------------------
Free energy:    -93.032965
Extrapolated:   -92.884169

Showing only first 2 kpts
 Kpt  Band  Eigenvalues  Occupancy
  0   151     -0.18923    1.99999
  0   152      0.15589    1.99971
  0   153      0.52182    1.98871
  0   154      0.59296    1.97714

  1   151     -0.24813    1.99999
  1   152     -0.20492    1.99999
  1   153     -0.03535    1.99996
  1   154      0.31962    1.99850


Fermi level: 1.03894

No gap
