
  ___ ___ ___ _ _ _  
 |   |   |_  | | | | 
 | | | | | . | | | | 
 |__ |  _|___|_____|  22.8.0
 |___|_|             

User:   gotols@vera41-2
Date:   Thu Mar  2 09:37:35 2023
Arch:   x86_64
Pid:    1577131
CWD:    /cephyr/users/gotols/Vera/TIF320-Computational-materials-and-molecular-physics-Assignments
Python: 3.10.4
gpaw:   /apps/Arch/software/GPAW/22.8.0-foss-2022a/lib/python3.10/site-packages/gpaw
_gpaw:  /apps/Arch/software/GPAW/22.8.0-foss-2022a/lib/python3.10/site-packages/
        _gpaw.cpython-310-x86_64-linux-gnu.so
ase:    /apps/Arch/software/ASE/3.22.1-foss-2022a/lib/python3.10/site-packages/ase (version 3.22.1)
numpy:  /apps/Arch/software/SciPy-bundle/2022.05-foss-2022a/lib/python3.10/site-packages/numpy (version 1.22.3)
scipy:  /apps/Arch/software/SciPy-bundle/2022.05-foss-2022a/lib/python3.10/site-packages/scipy (version 1.8.1)
libxc:  5.2.3
units:  Angstrom and eV
cores: 16
OpenMP: False
OMP_NUM_THREADS: 1

Input parameters:
  kpts: [4 4 1]
  mode: {ecut: 450.00000000000006,
         name: pw}
  xc: PBE

System changes: positions, numbers, cell, pbc, initial_charges, initial_magmoms 

Initialize ...

species:
  Au:
    name: Gold
    id: b12133f335f6ca0d89c4b1ccaa844e9a
    Z: 79.0
    valence: 11
    core: 68
    charge: 0.0
    file: /apps/Common/software/GPAW-setups/0.9.20000/Au.PBE.gz
    compensation charges: {type: gauss,
                           rc: 0.42,
                           lmax: 2}
    cutoffs: {filter: 2.33,
              core: 2.81}
    valence states:
      #              energy  rcut
      - 6s(1.00)    -5.728   1.323
      - 6p(0.00)    -0.775   1.323
      - 5d(10.00)    -6.891   1.323
      -  s          21.484   1.323
      -  p          26.436   1.323
      -  d          20.321   1.323
  
    # Using partial waves for Au as LCAO basis

  O:
    name: Oxygen
    id: 32ecd46bf208036f09c70b0ec9a88b78
    Z: 8.0
    valence: 6
    core: 2
    charge: 0.0
    file: /apps/Common/software/GPAW-setups/0.9.20000/O.PBE.gz
    compensation charges: {type: gauss,
                           rc: 0.21,
                           lmax: 2}
    cutoffs: {filter: 1.17,
              core: 0.83}
    valence states:
      #              energy  rcut
      - 2s(2.00)   -23.961   0.688
      - 2p(4.00)    -9.029   0.598
      -  s           3.251   0.688
      -  p          18.182   0.598
      -  d           0.000   0.619
  
    # Using partial waves for O as LCAO basis

  C:
    name: Carbon
    id: 4aa54d4b901d75f77cc0ea3eec22967b
    Z: 6.0
    valence: 4
    core: 2
    charge: 0.0
    file: /apps/Common/software/GPAW-setups/0.9.20000/C.PBE.gz
    compensation charges: {type: gauss,
                           rc: 0.20,
                           lmax: 2}
    cutoffs: {filter: 1.14,
              core: 1.14}
    valence states:
      #              energy  rcut
      - 2s(2.00)   -13.751   0.635
      - 2p(2.00)    -5.284   0.635
      -  s          13.461   0.635
      -  p          21.927   0.635
      -  d           0.000   0.635
  
    # Using partial waves for C as LCAO basis

Reference energy: -13951221.800367  # eV

Spin-paired calculation

Convergence criteria:
 Maximum [total energy] change in last 3 cyles: 0.0005 eV / electron
 Maximum integral of absolute [dens]ity change: 0.0001 electrons / valence electron
 Maximum integral of absolute [eigenst]ate change: 4e-08 eV^2 / valence electron
 Maximum number of scf [iter]ations: 333
 (Square brackets indicate name in SCF output, whereas a 'c' in
 the SCF output indicates the quantity has converged.)

Symmetries present (total): 1

  ( 1  0  0)
  ( 0  1  0)
  ( 0  0  1)

16 k-points: 4 x 4 x 1 Monkhorst-Pack grid
8 k-points in the irreducible part of the Brillouin zone
       k-points in crystal coordinates                weights
   0:     0.12500000   -0.37500000    0.00000000          2/16
   1:     0.12500000   -0.12500000    0.00000000          2/16
   2:     0.12500000    0.12500000    0.00000000          2/16
   3:     0.12500000    0.37500000    0.00000000          2/16
   4:     0.37500000   -0.37500000    0.00000000          2/16
   5:     0.37500000   -0.12500000    0.00000000          2/16
   6:     0.37500000    0.12500000    0.00000000          2/16
   7:     0.37500000    0.37500000    0.00000000          2/16

Wave functions: Plane wave expansion
  Cutoff energy: 450.000 eV
  Number of coefficients (min, max): 24769, 24813
  Pulay-stress correction: 0.000000 eV/Ang^3 (de/decut=0.000000)
  Using FFTW library
  ScaLapack parameters: grid=1x1, blocksize=None
  Wavefunction extrapolation:
    Improved wavefunction reuse through dual PAW basis 

Occupation numbers: Fermi-Dirac:
  width: 0.1000  # eV
 

Eigensolver
   Davidson(niter=2) 

Densities:
  Coarse grid: 45*45*84 grid
  Fine grid: 90*90*168 grid
  Total Charge: 0.000000 

Density mixing:
  Method: separate
  Backend: pulay
  Linear mixing parameter: 0.05
  old densities: 5
  Damping of long wavelength oscillations: 50 

Hamiltonian:
  XC and Coulomb potentials evaluated on a 90*90*168 grid
  Using the PBE Exchange-Correlation functional
  External potential:
    NoExternalPotential
 

XC parameters: PBE with 2 nearest neighbor stencil

Memory estimate:
  Process memory now: 484.50 MiB
  Calculator: 215.02 MiB
    Density: 43.16 MiB
      Arrays: 16.87 MiB
      Localized functions: 19.80 MiB
      Mixer: 6.49 MiB
    Hamiltonian: 11.57 MiB
      Arrays: 11.03 MiB
      XC: 0.00 MiB
      Poisson: 0.00 MiB
      vbar: 0.54 MiB
    Wavefunctions: 160.30 MiB
      Arrays psit_nG: 71.56 MiB
      Eigensolver: 78.91 MiB
      Projections: 0.74 MiB
      Projectors: 2.37 MiB
      PW-descriptor: 6.73 MiB

Total number of cores used: 16
Parallelization over k-points: 8
Domain decomposition: 1 x 1 x 2

Number of atoms: 29
Number of atomic orbitals: 251
Number of bands in calculation: 189
Number of valence electrons: 307
Bands to converge: occupied

... initialized

Initializing position-dependent things.

Density initialized from atomic densities
Creating initial wave functions:
  189 bands from LCAO basis set

                                              
                                              
                                              
                                              
                                              
                                              
                                              
                                              
           O                                  
                  Au     Au     Au            
           C                                  
            Au     AAu    AAu    Au           
       Au     Au     AAu    Au                
                                              
        Au     Au     AAu    Au     Au        
                                              
                 Au     Au     Au             
                                              
           Au      Au     Au                  
                                              
                                              
                                              
                                              

Positions:
   0 Au     1.476793    0.852627    6.000000    ( 0.0000,  0.0000,  0.0000)
   1 Au     4.430378    0.852627    6.000000    ( 0.0000,  0.0000,  0.0000)
   2 Au     7.383963    0.852627    6.000000    ( 0.0000,  0.0000,  0.0000)
   3 Au     2.953585    3.410506    6.000000    ( 0.0000,  0.0000,  0.0000)
   4 Au     5.907170    3.410506    6.000000    ( 0.0000,  0.0000,  0.0000)
   5 Au     8.860755    3.410506    6.000000    ( 0.0000,  0.0000,  0.0000)
   6 Au     4.430378    5.968386    6.000000    ( 0.0000,  0.0000,  0.0000)
   7 Au     7.383963    5.968386    6.000000    ( 0.0000,  0.0000,  0.0000)
   8 Au    10.337548    5.968386    6.000000    ( 0.0000,  0.0000,  0.0000)
   9 Au    -0.000000    1.705253    8.411592    ( 0.0000,  0.0000,  0.0000)
  10 Au     2.953585    1.705253    8.411592    ( 0.0000,  0.0000,  0.0000)
  11 Au     5.907170    1.705253    8.411592    ( 0.0000,  0.0000,  0.0000)
  12 Au     1.476793    4.263133    8.411592    ( 0.0000,  0.0000,  0.0000)
  13 Au     4.430378    4.263133    8.411592    ( 0.0000,  0.0000,  0.0000)
  14 Au     7.383963    4.263133    8.411592    ( 0.0000,  0.0000,  0.0000)
  15 Au     2.953585    6.821012    8.411592    ( 0.0000,  0.0000,  0.0000)
  16 Au     5.907170    6.821012    8.411592    ( 0.0000,  0.0000,  0.0000)
  17 Au     8.860755    6.821012    8.411592    ( 0.0000,  0.0000,  0.0000)
  18 Au     0.000000    0.000000   10.823184    ( 0.0000,  0.0000,  0.0000)
  19 Au     2.953585    0.000000   10.823184    ( 0.0000,  0.0000,  0.0000)
  20 Au     5.907170    0.000000   10.823184    ( 0.0000,  0.0000,  0.0000)
  21 Au     1.476793    2.557880   10.823184    ( 0.0000,  0.0000,  0.0000)
  22 Au     4.430378    2.557880   10.823184    ( 0.0000,  0.0000,  0.0000)
  23 Au     7.383963    2.557880   10.823184    ( 0.0000,  0.0000,  0.0000)
  24 Au     2.953585    5.115759   10.823184    ( 0.0000,  0.0000,  0.0000)
  25 Au     5.907170    5.115759   10.823184    ( 0.0000,  0.0000,  0.0000)
  26 Au     8.860755    5.115759   10.823184    ( 0.0000,  0.0000,  0.0000)
  27 O      1.476793    0.000000   13.973524    ( 0.0000,  0.0000,  0.0000)
  28 C      1.476793    0.000000   12.823184    ( 0.0000,  0.0000,  0.0000)

Unit cell:
           periodic     x           y           z      points  spacing
  1. axis:    yes    8.860755    0.000000    0.000000    45     0.1705
  2. axis:    yes    4.430378    7.673639    0.000000    45     0.1705
  3. axis:    no     0.000000    0.000000   16.823184    84     0.2003

  Lengths:   8.860755   8.860755  16.823184
  Angles:   90.000000  90.000000  60.000000

Effective grid spacing dv^(1/3) = 0.1888

     iter     time        total  log10-change:
                         energy  eigst   dens
iter:   1 09:37:53  -100.617289
iter:   2 09:38:00   -98.790657  -1.63  -1.33
iter:   3 09:38:07   -95.107476  -1.97  -1.36
iter:   4 09:38:14   -93.252247  -1.82  -1.51
iter:   5 09:38:20   -93.154266  -2.04  -1.78
iter:   6 09:38:27   -93.052867  -3.27  -2.09
iter:   7 09:38:34   -93.013906c -2.63  -2.13
iter:   8 09:38:41   -93.007461c -3.81  -2.38
iter:   9 09:38:48   -92.945163c -3.43  -2.47
iter:  10 09:38:55   -92.938238c -3.93  -2.88
iter:  11 09:39:02   -92.936918c -4.81  -3.03
iter:  12 09:39:08   -92.936176c -4.71  -3.17
iter:  13 09:39:15   -92.936013c -5.29  -3.31
iter:  14 09:39:22   -92.935953c -5.44  -3.40
iter:  15 09:39:29   -92.935889c -5.54  -3.51
iter:  16 09:39:36   -92.935886c -6.48  -3.68
iter:  17 09:39:43   -92.935877c -5.82  -3.71
iter:  18 09:39:50   -92.935836c -6.91  -4.18c
iter:  19 09:39:57   -92.935823c -7.34  -4.29c
iter:  20 09:40:04   -92.935818c -7.69c -4.26c

Converged after 20 iterations.

Dipole moment: (-1.073286, -0.074481, 0.111524) |e|*Ang

Energy contributions relative to reference atoms: (reference = -13951221.800367)

Kinetic:       -293.168972
Potential:     +232.425780
External:        +0.000000
XC:             -35.061473
Entropy (-ST):   -0.307144
Local:           +3.022418
--------------------------
Free energy:    -93.089390
Extrapolated:   -92.935818

Showing only first 2 kpts
 Kpt  Band  Eigenvalues  Occupancy
  0   151      1.03774    0.98200
  0   152      1.07573    0.79497
  0   153      1.17662    0.38780
  0   154      1.25692    0.19456

  1   151     -0.19158    1.99999
  1   152      0.19434    1.99955
  1   153      0.50995    1.98947
  1   154      0.62551    1.96695


Fermi level: 1.03414

No gap

Forces in eV/Ang:
  0 Au   -0.00396   -0.02929   -0.07137
  1 Au    0.03389    0.01919   -0.04049
  2 Au   -0.03940    0.01907   -0.05116
  3 Au    0.00059    0.02120   -0.02994
  4 Au   -0.00246   -0.02381   -0.05029
  5 Au   -0.00379    0.02092   -0.04614
  6 Au    0.01104   -0.01150   -0.05439
  7 Au   -0.01368   -0.01079   -0.07425
  8 Au   -0.00285   -0.01874   -0.02541
  9 Au    0.00822   -0.02549    0.03037
 10 Au   -0.00609   -0.03336    0.01975
 11 Au    0.00311    0.02980   -0.01820
 12 Au    0.00137    0.02870   -0.02407
 13 Au   -0.00258   -0.00204    0.00297
 14 Au    0.00352   -0.00982    0.01112
 15 Au    0.04388    0.00380    0.05274
 16 Au   -0.00159    0.00610   -0.09718
 17 Au   -0.03759    0.01201    0.05665
 18 Au   -0.20591    0.01322    0.37309
 19 Au    0.19757    0.02762    0.37264
 20 Au    0.00446   -0.00965    0.06180
 21 Au    0.00083    0.28088   -0.05471
 22 Au    0.01560    0.02797    0.04227
 23 Au   -0.01334    0.03952    0.04043
 24 Au   -0.00595   -0.01484    0.03098
 25 Au    0.00310   -0.32626   -0.06544
 26 Au    0.01141   -0.02769    0.03345
 27 O    -0.00048    0.00710    0.12162
 28 C     0.00123   -0.01374   -0.50787

System changes: positions 

Initializing position-dependent things.

Density initialized from wave functions
                                              
                                              
                                              
                                              
                                              
                                              
                                              
                                              
           O                                  
                  Au     Au     Au            
           CAu      Au     Au                 
                   Au     Au     Au           
       Au     Au     AAu    Au                
                                              
        Au     Au     AAu    Au     Au        
                                              
                 Au     Au     Au             
                                              
           Au      Au     Au                  
                                              
                                              
                                              
                                              

Positions:
   0 Au     1.476793    0.852627    6.000000    ( 0.0000,  0.0000,  0.0000)
   1 Au     4.430378    0.852627    6.000000    ( 0.0000,  0.0000,  0.0000)
   2 Au     7.383963    0.852627    6.000000    ( 0.0000,  0.0000,  0.0000)
   3 Au     2.953585    3.410506    6.000000    ( 0.0000,  0.0000,  0.0000)
   4 Au     5.907170    3.410506    6.000000    ( 0.0000,  0.0000,  0.0000)
   5 Au     8.860755    3.410506    6.000000    ( 0.0000,  0.0000,  0.0000)
   6 Au     4.430378    5.968386    6.000000    ( 0.0000,  0.0000,  0.0000)
   7 Au     7.383963    5.968386    6.000000    ( 0.0000,  0.0000,  0.0000)
   8 Au    10.337548    5.968386    6.000000    ( 0.0000,  0.0000,  0.0000)
   9 Au    -0.000000    1.705253    8.411592    ( 0.0000,  0.0000,  0.0000)
  10 Au     2.953585    1.705253    8.411592    ( 0.0000,  0.0000,  0.0000)
  11 Au     5.907170    1.705253    8.411592    ( 0.0000,  0.0000,  0.0000)
  12 Au     1.476793    4.263133    8.411592    ( 0.0000,  0.0000,  0.0000)
  13 Au     4.430378    4.263133    8.411592    ( 0.0000,  0.0000,  0.0000)
  14 Au     7.383963    4.263133    8.411592    ( 0.0000,  0.0000,  0.0000)
  15 Au     2.953585    6.821012    8.411592    ( 0.0000,  0.0000,  0.0000)
  16 Au     5.907170    6.821012    8.411592    ( 0.0000,  0.0000,  0.0000)
  17 Au     8.860755    6.821012    8.411592    ( 0.0000,  0.0000,  0.0000)
  18 Au     0.000000    0.000000   10.823184    ( 0.0000,  0.0000,  0.0000)
  19 Au     2.953585    0.000000   10.823184    ( 0.0000,  0.0000,  0.0000)
  20 Au     5.907170    0.000000   10.823184    ( 0.0000,  0.0000,  0.0000)
  21 Au     1.476793    2.557880   10.823184    ( 0.0000,  0.0000,  0.0000)
  22 Au     4.430378    2.557880   10.823184    ( 0.0000,  0.0000,  0.0000)
  23 Au     7.383963    2.557880   10.823184    ( 0.0000,  0.0000,  0.0000)
  24 Au     2.953585    5.115759   10.823184    ( 0.0000,  0.0000,  0.0000)
  25 Au     5.907170    5.115759   10.823184    ( 0.0000,  0.0000,  0.0000)
  26 Au     8.860755    5.115759   10.823184    ( 0.0000,  0.0000,  0.0000)
  27 O      1.476793    0.000000   13.973524    ( 0.0000,  0.0000,  0.0000)
  28 C      1.477758   -0.010815   12.423332    ( 0.0000,  0.0000,  0.0000)

Unit cell:
           periodic     x           y           z      points  spacing
  1. axis:    yes    8.860755    0.000000    0.000000    45     0.1705
  2. axis:    yes    4.430378    7.673639    0.000000    45     0.1705
  3. axis:    no     0.000000    0.000000   16.823184    84     0.2003

  Lengths:   8.860755   8.860755  16.823184
  Angles:   90.000000  90.000000  60.000000

Effective grid spacing dv^(1/3) = 0.1888

     iter     time        total  log10-change:
                         energy  eigst   dens
iter:   1 09:40:15  -113.218617  -0.24
iter:   2 09:40:22   -99.631071  -1.33  -1.50
iter:   3 09:40:29   -92.795087  -1.60  -1.74
iter:   4 09:40:36   -92.274813  -2.07  -1.84
iter:   5 09:40:43   -90.588009  -2.22  -1.99
iter:   6 09:40:50   -90.419717  -3.31  -2.19
iter:   7 09:40:57   -90.122722  -2.45  -2.33
iter:   8 09:41:03   -90.034383  -3.13  -2.41
iter:   9 09:41:10   -90.018777c -3.23  -2.66
iter:  10 09:41:17   -90.010708c -4.64  -2.87
iter:  11 09:41:24   -90.012585c -4.26  -2.97
iter:  12 09:41:31   -90.014486c -4.20  -3.04
iter:  13 09:41:38   -90.013444c -5.37  -3.22
iter:  14 09:41:45   -90.011555c -4.48  -3.30
iter:  15 09:41:52   -90.011628c -5.56  -3.64
iter:  16 09:41:59   -90.011623c -5.98  -3.70
iter:  17 09:42:05   -90.011603c -6.12  -3.80
iter:  18 09:42:12   -90.011547c -6.20  -3.95
iter:  19 09:42:19   -90.011540c -6.74  -4.12c
iter:  20 09:42:26   -90.011530c -6.78  -4.29c
iter:  21 09:42:33   -90.011526c -7.61c -4.39c

Converged after 21 iterations.

Dipole moment: (-0.037482, 0.611438, -0.731130) |e|*Ang

Energy contributions relative to reference atoms: (reference = -13951221.800367)

Kinetic:       -315.958478
Potential:     +252.934912
External:        +0.000000
XC:             -29.915401
Entropy (-ST):   -0.333543
Local:           +3.094212
--------------------------
Free energy:    -90.178298
Extrapolated:   -90.011526

Showing only first 2 kpts
 Kpt  Band  Eigenvalues  Occupancy
  0   151      0.73247    1.03908
  0   152      0.77087    0.84825
  0   153      0.85519    0.48132
  0   154      0.96337    0.19403

  1   151     -0.43908    1.99998
  1   152      0.02463    1.99844
  1   153      0.23212    1.98766
  1   154      0.52748    1.78720


Fermi level: 0.74029

No gap

Forces in eV/Ang:
  0 Au    0.00260   -0.01745   -0.10044
  1 Au    0.01962    0.02165   -0.05333
  2 Au   -0.03006    0.00965   -0.05892
  3 Au    0.00798    0.01154   -0.02746
  4 Au    0.00091   -0.01708   -0.03076
  5 Au   -0.01455    0.01802   -0.03278
  6 Au   -0.00617   -0.01408   -0.07539
  7 Au   -0.00474   -0.01892   -0.08981
  8 Au    0.00442   -0.00632   -0.01297
  9 Au   -0.01640   -0.03793    0.00421
 10 Au    0.01657   -0.05286   -0.01203
 11 Au    0.00523    0.02507   -0.00314
 12 Au    0.00003    0.00056    0.01066
 13 Au    0.00479    0.00928    0.02870
 14 Au    0.00161    0.00007    0.03436
 15 Au    0.10580    0.05857    0.10652
 16 Au    0.00287   -0.01889   -0.22455
 17 Au   -0.10473    0.06722    0.10998
 18 Au   -0.34200   -0.03922    0.73410
 19 Au    0.33885   -0.02170    0.73051
 20 Au    0.00530    0.00210    0.00983
 21 Au   -0.00024    0.37504    0.03444
 22 Au    0.05587    0.06531    0.01231
 23 Au   -0.05572    0.07050    0.00593
 24 Au   -0.04721   -0.05987    0.00589
 25 Au    0.00033   -0.38434    0.02008
 26 Au    0.05307   -0.06965    0.00658
 27 O     0.00624   -0.06197   -9.91743
 28 C    -0.01043    0.08641    8.73517

System changes: positions 

Initializing position-dependent things.

Density initialized from wave functions
                                              
                                              
                                              
                                              
                                              
                                              
                                              
                                              
           O                                  
                  Au     Au     Au            
           C                                  
            Au     AAu    AAu    Au           
       Au     Au     AAu    Au                
                                              
        Au     Au     AAu    Au     Au        
                                              
                 Au     Au     Au             
                                              
           Au      Au     Au                  
                                              
                                              
                                              
                                              

Positions:
   0 Au     1.476793    0.852627    6.000000    ( 0.0000,  0.0000,  0.0000)
   1 Au     4.430378    0.852627    6.000000    ( 0.0000,  0.0000,  0.0000)
   2 Au     7.383963    0.852627    6.000000    ( 0.0000,  0.0000,  0.0000)
   3 Au     2.953585    3.410506    6.000000    ( 0.0000,  0.0000,  0.0000)
   4 Au     5.907170    3.410506    6.000000    ( 0.0000,  0.0000,  0.0000)
   5 Au     8.860755    3.410506    6.000000    ( 0.0000,  0.0000,  0.0000)
   6 Au     4.430378    5.968386    6.000000    ( 0.0000,  0.0000,  0.0000)
   7 Au     7.383963    5.968386    6.000000    ( 0.0000,  0.0000,  0.0000)
   8 Au    10.337548    5.968386    6.000000    ( 0.0000,  0.0000,  0.0000)
   9 Au    -0.000000    1.705253    8.411592    ( 0.0000,  0.0000,  0.0000)
  10 Au     2.953585    1.705253    8.411592    ( 0.0000,  0.0000,  0.0000)
  11 Au     5.907170    1.705253    8.411592    ( 0.0000,  0.0000,  0.0000)
  12 Au     1.476793    4.263133    8.411592    ( 0.0000,  0.0000,  0.0000)
  13 Au     4.430378    4.263133    8.411592    ( 0.0000,  0.0000,  0.0000)
  14 Au     7.383963    4.263133    8.411592    ( 0.0000,  0.0000,  0.0000)
  15 Au     2.953585    6.821012    8.411592    ( 0.0000,  0.0000,  0.0000)
  16 Au     5.907170    6.821012    8.411592    ( 0.0000,  0.0000,  0.0000)
  17 Au     8.860755    6.821012    8.411592    ( 0.0000,  0.0000,  0.0000)
  18 Au     0.000000    0.000000   10.823184    ( 0.0000,  0.0000,  0.0000)
  19 Au     2.953585    0.000000   10.823184    ( 0.0000,  0.0000,  0.0000)
  20 Au     5.907170    0.000000   10.823184    ( 0.0000,  0.0000,  0.0000)
  21 Au     1.476793    2.557880   10.823184    ( 0.0000,  0.0000,  0.0000)
  22 Au     4.430378    2.557880   10.823184    ( 0.0000,  0.0000,  0.0000)
  23 Au     7.383963    2.557880   10.823184    ( 0.0000,  0.0000,  0.0000)
  24 Au     2.953585    5.115759   10.823184    ( 0.0000,  0.0000,  0.0000)
  25 Au     5.907170    5.115759   10.823184    ( 0.0000,  0.0000,  0.0000)
  26 Au     8.860755    5.115759   10.823184    ( 0.0000,  0.0000,  0.0000)
  27 O      1.476793    0.000000   13.973524    ( 0.0000,  0.0000,  0.0000)
  28 C      1.476818   -0.000298   12.814280    ( 0.0000,  0.0000,  0.0000)

Unit cell:
           periodic     x           y           z      points  spacing
  1. axis:    yes    8.860755    0.000000    0.000000    45     0.1705
  2. axis:    yes    4.430378    7.673639    0.000000    45     0.1705
  3. axis:    no     0.000000    0.000000   16.823184    84     0.2003

  Lengths:   8.860755   8.860755  16.823184
  Angles:   90.000000  90.000000  60.000000

Effective grid spacing dv^(1/3) = 0.1888

     iter     time        total  log10-change:
                         energy  eigst   dens
iter:   1 09:42:44   -98.279484  -1.21
iter:   2 09:42:51   -96.194456  -2.52  -1.86
iter:   3 09:42:58   -94.154452  -2.15  -2.05
iter:   4 09:43:05   -93.436418  -2.30  -2.16
iter:   5 09:43:12   -93.186689  -2.37  -2.12
iter:   6 09:43:19   -93.063484  -2.78  -2.37
iter:   7 09:43:26   -92.979029  -3.40  -2.41
iter:   8 09:43:33   -92.946918c -3.06  -2.62
iter:   9 09:43:39   -92.942186c -4.38  -2.85
iter:  10 09:43:46   -92.937201c -4.40  -2.94
iter:  11 09:43:53   -92.936824c -4.99  -3.18
iter:  12 09:44:00   -92.936895c -5.03  -3.31
iter:  13 09:44:07   -92.937413c -4.93  -3.33
iter:  14 09:44:14   -92.936719c -5.25  -3.34
iter:  15 09:44:21   -92.936624c -6.14  -3.66
iter:  16 09:44:28   -92.936459c -5.74  -3.75
iter:  17 09:44:34   -92.936445c -6.32  -4.05c
iter:  18 09:44:41   -92.936457c -6.78  -4.19c
iter:  19 09:44:48   -92.936440c -6.73  -4.23c
iter:  20 09:44:55   -92.936420c -7.24  -4.35c
iter:  21 09:45:02   -92.936438c -6.99  -4.43c
iter:  22 09:45:09   -92.936444c -7.72c -4.84c

Converged after 22 iterations.

Dipole moment: (-1.051413, -0.056400, 0.092898) |e|*Ang

Energy contributions relative to reference atoms: (reference = -13951221.800367)

Kinetic:       -295.719623
Potential:     +234.716678
External:        +0.000000
XC:             -34.791677
Entropy (-ST):   -0.307480
Local:           +3.011918
--------------------------
Free energy:    -93.090184
Extrapolated:   -92.936444

Showing only first 2 kpts
 Kpt  Band  Eigenvalues  Occupancy
  0   151      1.03073    0.98375
  0   152      1.06878    0.79636
  0   153      1.16977    0.38840
  0   154      1.24997    0.19506

  1   151     -0.19708    1.99999
  1   152      0.19147    1.99953
  1   153      0.50400    1.98940
  1   154      0.62212    1.96587


Fermi level: 1.02748

No gap

Forces in eV/Ang:
  0 Au   -0.00371   -0.03046   -0.07118
  1 Au    0.03332    0.01959   -0.03943
  2 Au   -0.03892    0.01924   -0.05051
  3 Au    0.00072    0.02058   -0.02935
  4 Au   -0.00229   -0.02370   -0.05111
  5 Au   -0.00405    0.02054   -0.04539
  6 Au    0.01251   -0.01074   -0.05240
  7 Au   -0.01519   -0.01011   -0.07264
  8 Au   -0.00264   -0.01856   -0.02699
  9 Au    0.00765   -0.02457    0.03026
 10 Au   -0.00550   -0.03246    0.01918
 11 Au    0.00312    0.03117   -0.01692
 12 Au    0.00137    0.03089   -0.02469
 13 Au   -0.00369   -0.00346    0.00218
 14 Au    0.00479   -0.01127    0.01033
 15 Au    0.04221    0.00290    0.05194
 16 Au   -0.00143    0.00594   -0.09625
 17 Au   -0.03612    0.01118    0.05611
 18 Au   -0.20086    0.01246    0.38571
 19 Au    0.19234    0.02712    0.38535
 20 Au    0.00449   -0.00957    0.06570
 21 Au    0.00080    0.28079   -0.05180
 22 Au    0.01270    0.02662    0.04717
 23 Au   -0.01057    0.03853    0.04528
 24 Au   -0.00291   -0.01352    0.03600
 25 Au    0.00293   -0.32610   -0.06348
 26 Au    0.00828   -0.02688    0.03846
 27 O    -0.00049    0.00690   -0.76338
 28 C     0.00114   -0.01319    0.32160

System changes: positions 

Initializing position-dependent things.

Density initialized from wave functions
                                              
                                              
                                              
                                              
                                              
                                              
                                              
                                              
           O                                  
                  Au     Au     Au            
           C                                  
            Au     AAu    AAu    Au           
       Au     Au     AAu    Au                
                                              
        Au     Au     AAu    Au     Au        
                                              
                 Au     Au     Au             
                                              
           Au      Au     Au                  
                                              
                                              
                                              
                                              

Positions:
   0 Au     1.476793    0.852627    6.000000    ( 0.0000,  0.0000,  0.0000)
   1 Au     4.430378    0.852627    6.000000    ( 0.0000,  0.0000,  0.0000)
   2 Au     7.383963    0.852627    6.000000    ( 0.0000,  0.0000,  0.0000)
   3 Au     2.953585    3.410506    6.000000    ( 0.0000,  0.0000,  0.0000)
   4 Au     5.907170    3.410506    6.000000    ( 0.0000,  0.0000,  0.0000)
   5 Au     8.860755    3.410506    6.000000    ( 0.0000,  0.0000,  0.0000)
   6 Au     4.430378    5.968386    6.000000    ( 0.0000,  0.0000,  0.0000)
   7 Au     7.383963    5.968386    6.000000    ( 0.0000,  0.0000,  0.0000)
   8 Au    10.337548    5.968386    6.000000    ( 0.0000,  0.0000,  0.0000)
   9 Au    -0.000000    1.705253    8.411592    ( 0.0000,  0.0000,  0.0000)
  10 Au     2.953585    1.705253    8.411592    ( 0.0000,  0.0000,  0.0000)
  11 Au     5.907170    1.705253    8.411592    ( 0.0000,  0.0000,  0.0000)
  12 Au     1.476793    4.263133    8.411592    ( 0.0000,  0.0000,  0.0000)
  13 Au     4.430378    4.263133    8.411592    ( 0.0000,  0.0000,  0.0000)
  14 Au     7.383963    4.263133    8.411592    ( 0.0000,  0.0000,  0.0000)
  15 Au     2.953585    6.821012    8.411592    ( 0.0000,  0.0000,  0.0000)
  16 Au     5.907170    6.821012    8.411592    ( 0.0000,  0.0000,  0.0000)
  17 Au     8.860755    6.821012    8.411592    ( 0.0000,  0.0000,  0.0000)
  18 Au     0.000000    0.000000   10.823184    ( 0.0000,  0.0000,  0.0000)
  19 Au     2.953585    0.000000   10.823184    ( 0.0000,  0.0000,  0.0000)
  20 Au     5.907170    0.000000   10.823184    ( 0.0000,  0.0000,  0.0000)
  21 Au     1.476793    2.557880   10.823184    ( 0.0000,  0.0000,  0.0000)
  22 Au     4.430378    2.557880   10.823184    ( 0.0000,  0.0000,  0.0000)
  23 Au     7.383963    2.557880   10.823184    ( 0.0000,  0.0000,  0.0000)
  24 Au     2.953585    5.115759   10.823184    ( 0.0000,  0.0000,  0.0000)
  25 Au     5.907170    5.115759   10.823184    ( 0.0000,  0.0000,  0.0000)
  26 Au     8.860755    5.115759   10.823184    ( 0.0000,  0.0000,  0.0000)
  27 O      1.476793    0.000000   13.973524    ( 0.0000,  0.0000,  0.0000)
  28 C      1.476873   -0.000919   12.817770    ( 0.0000,  0.0000,  0.0000)

Unit cell:
           periodic     x           y           z      points  spacing
  1. axis:    yes    8.860755    0.000000    0.000000    45     0.1705
  2. axis:    yes    4.430378    7.673639    0.000000    45     0.1705
  3. axis:    no     0.000000    0.000000   16.823184    84     0.2003

  Lengths:   8.860755   8.860755  16.823184
  Angles:   90.000000  90.000000  60.000000

Effective grid spacing dv^(1/3) = 0.1888

     iter     time        total  log10-change:
                         energy  eigst   dens
iter:   1 09:45:21   -92.939212  -4.67
iter:   2 09:45:27   -92.938139  -5.72  -3.48
iter:   3 09:45:34   -92.937346c -5.54  -3.76
iter:   4 09:45:41   -92.937160c -5.97  -3.90
iter:   5 09:45:48   -92.937155c -6.24  -3.99
iter:   6 09:45:55   -92.937165c -6.71  -4.32c
iter:   7 09:46:02   -92.937097c -6.66  -4.33c
iter:   8 09:46:09   -92.937097c -7.94c -4.76c

Converged after 8 iterations.

Dipole moment: (-1.033095, -0.018310, 0.099649) |e|*Ang

Energy contributions relative to reference atoms: (reference = -13951221.800367)

Kinetic:       -295.251579
Potential:     +234.323152
External:        +0.000000
XC:             -34.873857
Entropy (-ST):   -0.307334
Local:           +3.018854
--------------------------
Free energy:    -93.090764
Extrapolated:   -92.937097

Showing only first 2 kpts
 Kpt  Band  Eigenvalues  Occupancy
  0   151      1.03351    0.98291
  0   152      1.07153    0.79574
  0   153      1.17246    0.38817
  0   154      1.25270    0.19487

  1   151     -0.19492    1.99999
  1   152      0.19258    1.99954
  1   153      0.50639    1.98942
  1   154      0.62344    1.96631


Fermi level: 1.03010

No gap

Forces in eV/Ang:
  0 Au   -0.00376   -0.03034   -0.06891
  1 Au    0.03335    0.01950   -0.03694
  2 Au   -0.03893    0.01925   -0.04805
  3 Au    0.00079    0.02053   -0.02705
  4 Au   -0.00232   -0.02376   -0.04882
  5 Au   -0.00410    0.02043   -0.04311
  6 Au    0.01238   -0.01076   -0.05014
  7 Au   -0.01501   -0.01006   -0.07028
  8 Au   -0.00270   -0.01841   -0.02447
  9 Au    0.00799   -0.02432    0.02873
 10 Au   -0.00586   -0.03224    0.01785
 11 Au    0.00313    0.03121   -0.01937
 12 Au    0.00133    0.03096   -0.02718
 13 Au   -0.00377   -0.00336    0.00010
 14 Au    0.00488   -0.01115    0.00820
 15 Au    0.04186    0.00259    0.04994
 16 Au   -0.00141    0.00573   -0.09727
 17 Au   -0.03582    0.01085    0.05411
 18 Au   -0.19939    0.01296    0.37599
 19 Au    0.19089    0.02753    0.37570
 20 Au    0.00443   -0.00969    0.06941
 21 Au    0.00085    0.27932   -0.05206
 22 Au    0.01130    0.02618    0.05044
 23 Au   -0.00915    0.03815    0.04849
 24 Au   -0.00166   -0.01310    0.03909
 25 Au    0.00290   -0.32549   -0.06418
 26 Au    0.00705   -0.02644    0.04143
 27 O    -0.00053    0.00734   -0.42627
 28 C     0.00104   -0.01128    0.01426

System changes: positions 

Initializing position-dependent things.

Density initialized from wave functions
                                              
                                              
                                              
                                              
                                              
                                              
                                              
                                              
           O                                  
                  Au     Au     Au            
           C                                  
            Au     AAu    AAu    Au           
       Au     Au     AAu    Au                
                                              
        Au     Au     AAu    Au     Au        
                                              
                 Au     Au     Au             
                                              
           Au      Au     Au                  
                                              
                                              
                                              
                                              

Positions:
   0 Au     1.476793    0.852627    6.000000    ( 0.0000,  0.0000,  0.0000)
   1 Au     4.430378    0.852627    6.000000    ( 0.0000,  0.0000,  0.0000)
   2 Au     7.383963    0.852627    6.000000    ( 0.0000,  0.0000,  0.0000)
   3 Au     2.953585    3.410506    6.000000    ( 0.0000,  0.0000,  0.0000)
   4 Au     5.907170    3.410506    6.000000    ( 0.0000,  0.0000,  0.0000)
   5 Au     8.860755    3.410506    6.000000    ( 0.0000,  0.0000,  0.0000)
   6 Au     4.430378    5.968386    6.000000    ( 0.0000,  0.0000,  0.0000)
   7 Au     7.383963    5.968386    6.000000    ( 0.0000,  0.0000,  0.0000)
   8 Au    10.337548    5.968386    6.000000    ( 0.0000,  0.0000,  0.0000)
   9 Au    -0.000000    1.705253    8.411592    ( 0.0000,  0.0000,  0.0000)
  10 Au     2.953585    1.705253    8.411592    ( 0.0000,  0.0000,  0.0000)
  11 Au     5.907170    1.705253    8.411592    ( 0.0000,  0.0000,  0.0000)
  12 Au     1.476793    4.263133    8.411592    ( 0.0000,  0.0000,  0.0000)
  13 Au     4.430378    4.263133    8.411592    ( 0.0000,  0.0000,  0.0000)
  14 Au     7.383963    4.263133    8.411592    ( 0.0000,  0.0000,  0.0000)
  15 Au     2.953585    6.821012    8.411592    ( 0.0000,  0.0000,  0.0000)
  16 Au     5.907170    6.821012    8.411592    ( 0.0000,  0.0000,  0.0000)
  17 Au     8.860755    6.821012    8.411592    ( 0.0000,  0.0000,  0.0000)
  18 Au     0.000000    0.000000   10.823184    ( 0.0000,  0.0000,  0.0000)
  19 Au     2.953585    0.000000   10.823184    ( 0.0000,  0.0000,  0.0000)
  20 Au     5.907170    0.000000   10.823184    ( 0.0000,  0.0000,  0.0000)
  21 Au     1.476793    2.557880   10.823184    ( 0.0000,  0.0000,  0.0000)
  22 Au     4.430378    2.557880   10.823184    ( 0.0000,  0.0000,  0.0000)
  23 Au     7.383963    2.557880   10.823184    ( 0.0000,  0.0000,  0.0000)
  24 Au     2.953585    5.115759   10.823184    ( 0.0000,  0.0000,  0.0000)
  25 Au     5.907170    5.115759   10.823184    ( 0.0000,  0.0000,  0.0000)
  26 Au     8.860755    5.115759   10.823184    ( 0.0000,  0.0000,  0.0000)
  27 O      1.476793    0.000000   13.973524    ( 0.0000,  0.0000,  0.0000)
  28 C      1.477283   -0.005382   12.817834    ( 0.0000,  0.0000,  0.0000)

Unit cell:
           periodic     x           y           z      points  spacing
  1. axis:    yes    8.860755    0.000000    0.000000    45     0.1705
  2. axis:    yes    4.430378    7.673639    0.000000    45     0.1705
  3. axis:    no     0.000000    0.000000   16.823184    84     0.2003

  Lengths:   8.860755   8.860755  16.823184
  Angles:   90.000000  90.000000  60.000000

Effective grid spacing dv^(1/3) = 0.1888

     iter     time        total  log10-change:
                         energy  eigst   dens
iter:   1 09:46:20   -92.937197  -4.86
iter:   2 09:46:27   -92.937183  -6.12  -4.27c
iter:   3 09:46:34   -92.937138c -6.46  -4.38c
iter:   4 09:46:41   -92.937137c -7.44c -4.49c

Converged after 4 iterations.

Dipole moment: (-0.871648, 0.256484, 0.100484) |e|*Ang

Energy contributions relative to reference atoms: (reference = -13951221.800367)

Kinetic:       -295.214022
Potential:     +234.299920
External:        +0.000000
XC:             -34.878434
Entropy (-ST):   -0.307347
Local:           +3.009073
--------------------------
Free energy:    -93.090811
Extrapolated:   -92.937137

Showing only first 2 kpts
 Kpt  Band  Eigenvalues  Occupancy
  0   151      1.03410    0.98211
  0   152      1.07213    0.79488
  0   153      1.17279    0.38849
  0   154      1.25299    0.19510

  1   151     -0.19463    1.99999
  1   152      0.19298    1.99954
  1   153      0.50671    1.98944
  1   154      0.62365    1.96637


Fermi level: 1.03052

No gap

Forces in eV/Ang:
  0 Au   -0.00368   -0.02958   -0.06619
  1 Au    0.03343    0.01976   -0.03421
  2 Au   -0.03913    0.01963   -0.04513
  3 Au    0.00024    0.02057   -0.02392
  4 Au   -0.00221   -0.02437   -0.04622
  5 Au   -0.00363    0.02049   -0.03999
  6 Au    0.01183   -0.01090   -0.04759
  7 Au   -0.01443   -0.01023   -0.06759
  8 Au   -0.00275   -0.01901   -0.02219
  9 Au    0.00904   -0.02514    0.03253
 10 Au   -0.00704   -0.03306    0.02114
 11 Au    0.00328    0.03095   -0.01798
 12 Au    0.00138    0.02957   -0.02590
 13 Au   -0.00413   -0.00379    0.00176
 14 Au    0.00521   -0.01185    0.00968
 15 Au    0.04251    0.00348    0.05118
 16 Au   -0.00155    0.00797   -0.09798
 17 Au   -0.03645    0.01184    0.05510
 18 Au   -0.20475    0.01353    0.37079
 19 Au    0.19419    0.02794    0.37271
 20 Au    0.00511   -0.00829    0.06224
 21 Au    0.00037    0.28116   -0.05777
 22 Au    0.00981    0.02488    0.04406
 23 Au   -0.00708    0.03606    0.04229
 24 Au   -0.00429   -0.01514    0.03136
 25 Au    0.00250   -0.32753   -0.07061
 26 Au    0.01020   -0.02923    0.03362
 27 O     0.00029    0.00065   -0.42574
 28 C     0.00308   -0.02864    0.00131

System changes: positions 

Initializing position-dependent things.

Density initialized from wave functions
                                              
                                              
                                              
                                              
                                              
                                              
                                              
                                              
           O                                  
                  Au     Au     Au            
           C Au     Au     Au                 
                   Au     Au     Au           
       Au     AAu    AAu    Au                
                                              
        Au      Au    AAu    Au     Au        
                                              
                 Au     Au     Au             
                                              
           Au      Au     Au                  
                                              
                                              
                                              
                                              

Positions:
   0 Au     1.476793    0.852627    6.000000    ( 0.0000,  0.0000,  0.0000)
   1 Au     4.430378    0.852627    6.000000    ( 0.0000,  0.0000,  0.0000)
   2 Au     7.383963    0.852627    6.000000    ( 0.0000,  0.0000,  0.0000)
   3 Au     2.953585    3.410506    6.000000    ( 0.0000,  0.0000,  0.0000)
   4 Au     5.907170    3.410506    6.000000    ( 0.0000,  0.0000,  0.0000)
   5 Au     8.860755    3.410506    6.000000    ( 0.0000,  0.0000,  0.0000)
   6 Au     4.430378    5.968386    6.000000    ( 0.0000,  0.0000,  0.0000)
   7 Au     7.383963    5.968386    6.000000    ( 0.0000,  0.0000,  0.0000)
   8 Au    10.337548    5.968386    6.000000    ( 0.0000,  0.0000,  0.0000)
   9 Au    -0.000000    1.705253    8.411592    ( 0.0000,  0.0000,  0.0000)
  10 Au     2.953585    1.705253    8.411592    ( 0.0000,  0.0000,  0.0000)
  11 Au     5.907170    1.705253    8.411592    ( 0.0000,  0.0000,  0.0000)
  12 Au     1.476793    4.263133    8.411592    ( 0.0000,  0.0000,  0.0000)
  13 Au     4.430378    4.263133    8.411592    ( 0.0000,  0.0000,  0.0000)
  14 Au     7.383963    4.263133    8.411592    ( 0.0000,  0.0000,  0.0000)
  15 Au     2.953585    6.821012    8.411592    ( 0.0000,  0.0000,  0.0000)
  16 Au     5.907170    6.821012    8.411592    ( 0.0000,  0.0000,  0.0000)
  17 Au     8.860755    6.821012    8.411592    ( 0.0000,  0.0000,  0.0000)
  18 Au     0.000000    0.000000   10.823184    ( 0.0000,  0.0000,  0.0000)
  19 Au     2.953585    0.000000   10.823184    ( 0.0000,  0.0000,  0.0000)
  20 Au     5.907170    0.000000   10.823184    ( 0.0000,  0.0000,  0.0000)
  21 Au     1.476793    2.557880   10.823184    ( 0.0000,  0.0000,  0.0000)
  22 Au     4.430378    2.557880   10.823184    ( 0.0000,  0.0000,  0.0000)
  23 Au     7.383963    2.557880   10.823184    ( 0.0000,  0.0000,  0.0000)
  24 Au     2.953585    5.115759   10.823184    ( 0.0000,  0.0000,  0.0000)
  25 Au     5.907170    5.115759   10.823184    ( 0.0000,  0.0000,  0.0000)
  26 Au     8.860755    5.115759   10.823184    ( 0.0000,  0.0000,  0.0000)
  27 O      1.476793    0.000000   13.973524    ( 0.0000,  0.0000,  0.0000)
  28 C      1.499985   -0.241761   12.819239    ( 0.0000,  0.0000,  0.0000)

Unit cell:
           periodic     x           y           z      points  spacing
  1. axis:    yes    8.860755    0.000000    0.000000    45     0.1705
  2. axis:    yes    4.430378    7.673639    0.000000    45     0.1705
  3. axis:    no     0.000000    0.000000   16.823184    84     0.2003

  Lengths:   8.860755   8.860755  16.823184
  Angles:   90.000000  90.000000  60.000000

Effective grid spacing dv^(1/3) = 0.1888

     iter     time        total  log10-change:
                         energy  eigst   dens
iter:   1 09:46:52   -93.225697  -1.36
iter:   2 09:46:59   -93.061040  -2.57  -2.33
iter:   3 09:47:06   -92.936492  -3.10  -2.55
iter:   4 09:47:13   -92.901816  -3.44  -2.73
iter:   5 09:47:20   -92.889239c -3.57  -2.80
iter:   6 09:47:27   -92.886207c -4.09  -2.94
iter:   7 09:47:34   -92.880779c -3.93  -2.93
iter:   8 09:47:41   -92.880422c -5.34  -3.39
iter:   9 09:47:47   -92.879609c -4.77  -3.45
iter:  10 09:47:54   -92.879664c -5.61  -3.68
iter:  11 09:48:01   -92.879611c -5.53  -3.84
iter:  12 09:48:08   -92.879586c -6.91  -4.08c
iter:  13 09:48:15   -92.879576c -6.80  -4.14c
iter:  14 09:48:22   -92.879586c -7.05  -4.30c
iter:  15 09:48:29   -92.879559c -7.06  -4.38c
iter:  16 09:48:35   -92.879558c -8.03c -4.80c

Converged after 16 iterations.

Dipole moment: (3.987679, 8.297325, 0.047857) |e|*Ang

Energy contributions relative to reference atoms: (reference = -13951221.800367)

Kinetic:       -298.020276
Potential:     +236.574757
External:        +0.000000
XC:             -34.293504
Entropy (-ST):   -0.306966
Local:           +3.012948
--------------------------
Free energy:    -93.033041
Extrapolated:   -92.879558

Showing only first 2 kpts
 Kpt  Band  Eigenvalues  Occupancy
  0   151      1.01542    0.98351
  0   152      1.05362    0.79542
  0   153      1.15404    0.38958
  0   154      1.21936    0.22361

  1   151     -0.21112    1.99999
  1   152      0.17327    1.99955
  1   153      0.48907    1.98935
  1   154      0.59763    1.96881


Fermi level: 1.01212

No gap

Forces in eV/Ang:
  0 Au   -0.00108   -0.03261   -0.07225
  1 Au    0.03409    0.01955   -0.04024
  2 Au   -0.04125    0.01880   -0.05263
  3 Au   -0.00945    0.01676   -0.02725
  4 Au   -0.00269   -0.03301   -0.05020
  5 Au    0.00621    0.01648   -0.03918
  6 Au    0.01611   -0.00093   -0.05458
  7 Au   -0.02102    0.00138   -0.07171
  8 Au   -0.00107   -0.02072   -0.03205
  9 Au    0.00332   -0.01993    0.04237
 10 Au   -0.00466   -0.03821    0.03424
 11 Au    0.00751    0.02531   -0.01954
 12 Au    0.00376    0.02375   -0.03030
 13 Au   -0.00604    0.00693    0.01411
 14 Au    0.00583   -0.00566    0.02216
 15 Au    0.03204   -0.00480    0.04263
 16 Au    0.00232   -0.00078   -0.11011
 17 Au   -0.03659    0.01038    0.04880
 18 Au   -0.20020    0.04036    0.33527
 19 Au    0.18405    0.05408    0.37990
 20 Au    0.00062   -0.00994    0.06166
 21 Au   -0.00447    0.20576   -0.03710
 22 Au   -0.00078    0.01774    0.05377
 23 Au    0.00708    0.02746    0.05246
 24 Au   -0.01259   -0.02064    0.02577
 25 Au   -0.00559   -0.36792   -0.06413
 26 Au    0.02575   -0.03853    0.02605
 27 O     0.05798   -0.59519   -2.50212
 28 C    -0.03703    0.68735    2.09132

System changes: positions 

Initializing position-dependent things.

Density initialized from wave functions
                                              
                                              
                                              
                                              
                                              
                                              
                                              
                                              
           O                                  
                  Au     Au     Au            
           CAu      Au     Au                 
                   Au     Au     Au           
       Au     Au     AAu    Au                
                                              
        Au      Au    AAu    Au     Au        
                                              
                 Au     Au     Au             
                                              
           Au      Au     Au                  
                                              
                                              
                                              
                                              

Positions:
   0 Au     1.476793    0.852627    6.000000    ( 0.0000,  0.0000,  0.0000)
   1 Au     4.430378    0.852627    6.000000    ( 0.0000,  0.0000,  0.0000)
   2 Au     7.383963    0.852627    6.000000    ( 0.0000,  0.0000,  0.0000)
   3 Au     2.953585    3.410506    6.000000    ( 0.0000,  0.0000,  0.0000)
   4 Au     5.907170    3.410506    6.000000    ( 0.0000,  0.0000,  0.0000)
   5 Au     8.860755    3.410506    6.000000    ( 0.0000,  0.0000,  0.0000)
   6 Au     4.430378    5.968386    6.000000    ( 0.0000,  0.0000,  0.0000)
   7 Au     7.383963    5.968386    6.000000    ( 0.0000,  0.0000,  0.0000)
   8 Au    10.337548    5.968386    6.000000    ( 0.0000,  0.0000,  0.0000)
   9 Au    -0.000000    1.705253    8.411592    ( 0.0000,  0.0000,  0.0000)
  10 Au     2.953585    1.705253    8.411592    ( 0.0000,  0.0000,  0.0000)
  11 Au     5.907170    1.705253    8.411592    ( 0.0000,  0.0000,  0.0000)
  12 Au     1.476793    4.263133    8.411592    ( 0.0000,  0.0000,  0.0000)
  13 Au     4.430378    4.263133    8.411592    ( 0.0000,  0.0000,  0.0000)
  14 Au     7.383963    4.263133    8.411592    ( 0.0000,  0.0000,  0.0000)
  15 Au     2.953585    6.821012    8.411592    ( 0.0000,  0.0000,  0.0000)
  16 Au     5.907170    6.821012    8.411592    ( 0.0000,  0.0000,  0.0000)
  17 Au     8.860755    6.821012    8.411592    ( 0.0000,  0.0000,  0.0000)
  18 Au     0.000000    0.000000   10.823184    ( 0.0000,  0.0000,  0.0000)
  19 Au     2.953585    0.000000   10.823184    ( 0.0000,  0.0000,  0.0000)
  20 Au     5.907170    0.000000   10.823184    ( 0.0000,  0.0000,  0.0000)
  21 Au     1.476793    2.557880   10.823184    ( 0.0000,  0.0000,  0.0000)
  22 Au     4.430378    2.557880   10.823184    ( 0.0000,  0.0000,  0.0000)
  23 Au     7.383963    2.557880   10.823184    ( 0.0000,  0.0000,  0.0000)
  24 Au     2.953585    5.115759   10.823184    ( 0.0000,  0.0000,  0.0000)
  25 Au     5.907170    5.115759   10.823184    ( 0.0000,  0.0000,  0.0000)
  26 Au     8.860755    5.115759   10.823184    ( 0.0000,  0.0000,  0.0000)
  27 O      1.476793    0.000000   13.973524    ( 0.0000,  0.0000,  0.0000)
  28 C      1.484571   -0.079319   12.820812    ( 0.0000,  0.0000,  0.0000)

Unit cell:
           periodic     x           y           z      points  spacing
  1. axis:    yes    8.860755    0.000000    0.000000    45     0.1705
  2. axis:    yes    4.430378    7.673639    0.000000    45     0.1705
  3. axis:    no     0.000000    0.000000   16.823184    84     0.2003

  Lengths:   8.860755   8.860755  16.823184
  Angles:   90.000000  90.000000  60.000000

Effective grid spacing dv^(1/3) = 0.1888

     iter     time        total  log10-change:
                         energy  eigst   dens
iter:   1 09:48:47   -93.029618  -1.80
iter:   2 09:48:54   -92.981123  -3.04  -2.57
iter:   3 09:49:01   -92.948365c -3.51  -2.77
iter:   4 09:49:08   -92.938961c -3.86  -2.89
iter:   5 09:49:15   -92.936393c -4.29  -3.00
iter:   6 09:49:22   -92.937359c -4.31  -3.27
iter:   7 09:49:28   -92.934815c -4.35  -3.18
iter:   8 09:49:35   -92.934691c -5.74  -3.55
iter:   9 09:49:42   -92.934531c -5.02  -3.62
iter:  10 09:49:49   -92.934493c -6.10  -3.95
iter:  11 09:49:56   -92.934398c -6.19  -4.07c
iter:  12 09:50:03   -92.934395c -6.77  -4.25c
iter:  13 09:50:10   -92.934389c -6.54  -4.30c
iter:  14 09:50:17   -92.934391c -7.31  -4.66c
iter:  15 09:50:24   -92.934393c -7.82c -4.74c

Converged after 15 iterations.

Dipole moment: (1.637957, 4.493978, 0.101622) |e|*Ang

Energy contributions relative to reference atoms: (reference = -13951221.800367)

Kinetic:       -295.213442
Potential:     +234.300554
External:        +0.000000
XC:             -34.877816
Entropy (-ST):   -0.307064
Local:           +3.009844
--------------------------
Free energy:    -93.087925
Extrapolated:   -92.934393

Showing only first 2 kpts
 Kpt  Band  Eigenvalues  Occupancy
  0   151      1.03346    0.98475
  0   152      1.07217    0.79419
  0   153      1.17208    0.39036
  0   154      1.24825    0.20341

  1   151     -0.19473    1.99999
  1   152      0.19219    1.99954
  1   153      0.50651    1.98945
  1   154      0.62032    1.96742


Fermi level: 1.03041

No gap

Forces in eV/Ang:
  0 Au   -0.00260   -0.03189   -0.07137
  1 Au    0.03431    0.01950   -0.03902
  2 Au   -0.04067    0.01922   -0.05073
  3 Au   -0.00215    0.02040   -0.02768
  4 Au   -0.00240   -0.02678   -0.05007
  5 Au   -0.00113    0.02046   -0.04253
  6 Au    0.01334   -0.00825   -0.05343
  7 Au   -0.01645   -0.00684   -0.07281
  8 Au   -0.00237   -0.01964   -0.02830
  9 Au    0.00698   -0.02360    0.03558
 10 Au   -0.00604   -0.03491    0.02501
 11 Au    0.00479    0.02958   -0.02011
 12 Au    0.00228    0.02740   -0.02827
 13 Au   -0.00619   -0.00012    0.00340
 14 Au    0.00672   -0.00986    0.01135
 15 Au    0.04102    0.00041    0.04978
 16 Au   -0.00041    0.00440   -0.10001
 17 Au   -0.03848    0.01153    0.05463
 18 Au   -0.20717    0.02211    0.36242
 19 Au    0.19556    0.03629    0.37670
 20 Au    0.00313   -0.01133    0.06834
 21 Au   -0.00149    0.25707   -0.04603
 22 Au    0.00743    0.02397    0.05280
 23 Au   -0.00336    0.03479    0.05127
 24 Au   -0.00472   -0.01498    0.03566
 25 Au    0.00021   -0.34699   -0.06915
 26 Au    0.01241   -0.02963    0.03772
 27 O     0.00378   -0.03977   -0.40484
 28 C     0.00105    0.09178   -0.01173

System changes: positions 

Initializing position-dependent things.

Density initialized from wave functions
                                              
                                              
                                              
                                              
                                              
                                              
                                              
                                              
           O                                  
                  Au     Au     Au            
           CAu      Au     Au                 
                   Au     Au     Au           
       Au     Au     AAu    Au                
                                              
        Au      Au    AAu    Au     Au        
                                              
                 Au     Au     Au             
                                              
           Au      Au     Au                  
                                              
                                              
                                              
                                              

Positions:
   0 Au     1.476793    0.852627    6.000000    ( 0.0000,  0.0000,  0.0000)
   1 Au     4.430378    0.852627    6.000000    ( 0.0000,  0.0000,  0.0000)
   2 Au     7.383963    0.852627    6.000000    ( 0.0000,  0.0000,  0.0000)
   3 Au     2.953585    3.410506    6.000000    ( 0.0000,  0.0000,  0.0000)
   4 Au     5.907170    3.410506    6.000000    ( 0.0000,  0.0000,  0.0000)
   5 Au     8.860755    3.410506    6.000000    ( 0.0000,  0.0000,  0.0000)
   6 Au     4.430378    5.968386    6.000000    ( 0.0000,  0.0000,  0.0000)
   7 Au     7.383963    5.968386    6.000000    ( 0.0000,  0.0000,  0.0000)
   8 Au    10.337548    5.968386    6.000000    ( 0.0000,  0.0000,  0.0000)
   9 Au    -0.000000    1.705253    8.411592    ( 0.0000,  0.0000,  0.0000)
  10 Au     2.953585    1.705253    8.411592    ( 0.0000,  0.0000,  0.0000)
  11 Au     5.907170    1.705253    8.411592    ( 0.0000,  0.0000,  0.0000)
  12 Au     1.476793    4.263133    8.411592    ( 0.0000,  0.0000,  0.0000)
  13 Au     4.430378    4.263133    8.411592    ( 0.0000,  0.0000,  0.0000)
  14 Au     7.383963    4.263133    8.411592    ( 0.0000,  0.0000,  0.0000)
  15 Au     2.953585    6.821012    8.411592    ( 0.0000,  0.0000,  0.0000)
  16 Au     5.907170    6.821012    8.411592    ( 0.0000,  0.0000,  0.0000)
  17 Au     8.860755    6.821012    8.411592    ( 0.0000,  0.0000,  0.0000)
  18 Au     0.000000    0.000000   10.823184    ( 0.0000,  0.0000,  0.0000)
  19 Au     2.953585    0.000000   10.823184    ( 0.0000,  0.0000,  0.0000)
  20 Au     5.907170    0.000000   10.823184    ( 0.0000,  0.0000,  0.0000)
  21 Au     1.476793    2.557880   10.823184    ( 0.0000,  0.0000,  0.0000)
  22 Au     4.430378    2.557880   10.823184    ( 0.0000,  0.0000,  0.0000)
  23 Au     7.383963    2.557880   10.823184    ( 0.0000,  0.0000,  0.0000)
  24 Au     2.953585    5.115759   10.823184    ( 0.0000,  0.0000,  0.0000)
  25 Au     5.907170    5.115759   10.823184    ( 0.0000,  0.0000,  0.0000)
  26 Au     8.860755    5.115759   10.823184    ( 0.0000,  0.0000,  0.0000)
  27 O      1.476793    0.000000   13.973524    ( 0.0000,  0.0000,  0.0000)
  28 C      1.479484   -0.026545   12.818174    ( 0.0000,  0.0000,  0.0000)

Unit cell:
           periodic     x           y           z      points  spacing
  1. axis:    yes    8.860755    0.000000    0.000000    45     0.1705
  2. axis:    yes    4.430378    7.673639    0.000000    45     0.1705
  3. axis:    no     0.000000    0.000000   16.823184    84     0.2003

  Lengths:   8.860755   8.860755  16.823184
  Angles:   90.000000  90.000000  60.000000

Effective grid spacing dv^(1/3) = 0.1888

     iter     time        total  log10-change:
                         energy  eigst   dens
iter:   1 09:50:35   -92.938521  -2.75
iter:   2 09:50:42   -92.938626  -4.00  -3.38
iter:   3 09:50:49   -92.937450c -4.45  -3.44
iter:   4 09:50:56   -92.937401c -5.37  -3.63
iter:   5 09:51:03   -92.937157c -4.95  -3.66
iter:   6 09:51:10   -92.937121c -6.02  -3.81
iter:   7 09:51:16   -92.937122c -5.65  -3.96
iter:   8 09:51:23   -92.937080c -6.71  -4.13c
iter:   9 09:51:30   -92.937035c -6.41  -4.28c
iter:  10 09:51:37   -92.937038c -7.84c -4.63c

Converged after 10 iterations.

Dipole moment: (-0.104886, 1.551231, 0.100555) |e|*Ang

Energy contributions relative to reference atoms: (reference = -13951221.800367)

Kinetic:       -295.263993
Potential:     +234.346313
External:        +0.000000
XC:             -34.875039
Entropy (-ST):   -0.307281
Local:           +3.009321
--------------------------
Free energy:    -93.090678
Extrapolated:   -92.937038

Showing only first 2 kpts
 Kpt  Band  Eigenvalues  Occupancy
  0   151      1.03364    0.98340
  0   152      1.07196    0.79478
  0   153      1.17236    0.38920
  0   154      1.25154    0.19733

  1   151     -0.19472    1.99999
  1   152      0.19282    1.99954
  1   153      0.50656    1.98943
  1   154      0.62265    1.96664


Fermi level: 1.03032

No gap

Forces in eV/Ang:
  0 Au   -0.00354   -0.03021   -0.06995
  1 Au    0.03323    0.01985   -0.03688
  2 Au   -0.03893    0.01949   -0.04820
  3 Au   -0.00086    0.02002   -0.02654
  4 Au   -0.00227   -0.02514   -0.04832
  5 Au   -0.00249    0.01969   -0.04214
  6 Au    0.01251   -0.00959   -0.04974
  7 Au   -0.01557   -0.00882   -0.06925
  8 Au   -0.00233   -0.01913   -0.02460
  9 Au    0.00730   -0.02544    0.03103
 10 Au   -0.00476   -0.03549    0.02116
 11 Au    0.00288    0.03207   -0.01853
 12 Au    0.00136    0.03433   -0.02879
 13 Au   -0.00122   -0.00059    0.00500
 14 Au    0.00240   -0.00836    0.01328
 15 Au    0.04078   -0.00016    0.05012
 16 Au    0.00005    0.00250   -0.10020
 17 Au   -0.03692    0.00967    0.05622
 18 Au   -0.20427    0.02121    0.37194
 19 Au    0.19500    0.03515    0.37558
 20 Au    0.00298   -0.01015    0.06504
 21 Au    0.00021    0.26874   -0.04460
 22 Au    0.01067    0.02565    0.04931
 23 Au   -0.00800    0.03807    0.04820
 24 Au   -0.00501   -0.01559    0.03145
 25 Au    0.00239   -0.34030   -0.07718
 26 Au    0.01094   -0.02874    0.03289
 27 O     0.00171   -0.01228   -0.43372
 28 C     0.00324    0.00981    0.01021

System changes: positions 

Initializing position-dependent things.

Density initialized from wave functions
                                              
                                              
                                              
                                              
                                              
                                              
                                              
                                              
           O                                  
                  Au     Au     Au            
           CAu      Au     Au                 
                   Au     Au     Au           
       Au     Au     AAu    Au                
                                              
        Au     Au     AAu    Au     Au        
                                              
                 Au     Au     Au             
                                              
           Au      Au     Au                  
                                              
                                              
                                              
                                              

Positions:
   0 Au     1.476793    0.852627    6.000000    ( 0.0000,  0.0000,  0.0000)
   1 Au     4.430378    0.852627    6.000000    ( 0.0000,  0.0000,  0.0000)
   2 Au     7.383963    0.852627    6.000000    ( 0.0000,  0.0000,  0.0000)
   3 Au     2.953585    3.410506    6.000000    ( 0.0000,  0.0000,  0.0000)
   4 Au     5.907170    3.410506    6.000000    ( 0.0000,  0.0000,  0.0000)
   5 Au     8.860755    3.410506    6.000000    ( 0.0000,  0.0000,  0.0000)
   6 Au     4.430378    5.968386    6.000000    ( 0.0000,  0.0000,  0.0000)
   7 Au     7.383963    5.968386    6.000000    ( 0.0000,  0.0000,  0.0000)
   8 Au    10.337548    5.968386    6.000000    ( 0.0000,  0.0000,  0.0000)
   9 Au    -0.000000    1.705253    8.411592    ( 0.0000,  0.0000,  0.0000)
  10 Au     2.953585    1.705253    8.411592    ( 0.0000,  0.0000,  0.0000)
  11 Au     5.907170    1.705253    8.411592    ( 0.0000,  0.0000,  0.0000)
  12 Au     1.476793    4.263133    8.411592    ( 0.0000,  0.0000,  0.0000)
  13 Au     4.430378    4.263133    8.411592    ( 0.0000,  0.0000,  0.0000)
  14 Au     7.383963    4.263133    8.411592    ( 0.0000,  0.0000,  0.0000)
  15 Au     2.953585    6.821012    8.411592    ( 0.0000,  0.0000,  0.0000)
  16 Au     5.907170    6.821012    8.411592    ( 0.0000,  0.0000,  0.0000)
  17 Au     8.860755    6.821012    8.411592    ( 0.0000,  0.0000,  0.0000)
  18 Au     0.000000    0.000000   10.823184    ( 0.0000,  0.0000,  0.0000)
  19 Au     2.953585    0.000000   10.823184    ( 0.0000,  0.0000,  0.0000)
  20 Au     5.907170    0.000000   10.823184    ( 0.0000,  0.0000,  0.0000)
  21 Au     1.476793    2.557880   10.823184    ( 0.0000,  0.0000,  0.0000)
  22 Au     4.430378    2.557880   10.823184    ( 0.0000,  0.0000,  0.0000)
  23 Au     7.383963    2.557880   10.823184    ( 0.0000,  0.0000,  0.0000)
  24 Au     2.953585    5.115759   10.823184    ( 0.0000,  0.0000,  0.0000)
  25 Au     5.907170    5.115759   10.823184    ( 0.0000,  0.0000,  0.0000)
  26 Au     8.860755    5.115759   10.823184    ( 0.0000,  0.0000,  0.0000)
  27 O      1.476793    0.000000   13.973524    ( 0.0000,  0.0000,  0.0000)
  28 C      1.479101   -0.020471   12.818109    ( 0.0000,  0.0000,  0.0000)

Unit cell:
           periodic     x           y           z      points  spacing
  1. axis:    yes    8.860755    0.000000    0.000000    45     0.1705
  2. axis:    yes    4.430378    7.673639    0.000000    45     0.1705
  3. axis:    no     0.000000    0.000000   16.823184    84     0.2003

  Lengths:   8.860755   8.860755  16.823184
  Angles:   90.000000  90.000000  60.000000

Effective grid spacing dv^(1/3) = 0.1888

     iter     time        total  log10-change:
                         energy  eigst   dens
iter:   1 09:51:49   -92.937274  -4.60
iter:   2 09:51:55   -92.937217  -5.91  -4.02c
iter:   3 09:52:02   -92.937119c -5.87  -4.15c
iter:   4 09:52:09   -92.937121c -7.09  -4.38c
iter:   5 09:52:16   -92.937146c -6.73  -4.41c
iter:   6 09:52:23   -92.937136c -7.78c -4.62c

Converged after 6 iterations.

Dipole moment: (-0.323201, 1.181714, 0.100746) |e|*Ang

Energy contributions relative to reference atoms: (reference = -13951221.800367)

Kinetic:       -295.270511
Potential:     +234.353010
External:        +0.000000
XC:             -34.875291
Entropy (-ST):   -0.307271
Local:           +3.009291
--------------------------
Free energy:    -93.090772
Extrapolated:   -92.937136

Showing only first 2 kpts
 Kpt  Band  Eigenvalues  Occupancy
  0   151      1.03329    0.98419
  0   152      1.07160    0.79556
  0   153      1.17228    0.38886
  0   154      1.25162    0.19685

  1   151     -0.19486    1.99999
  1   152      0.19270    1.99954
  1   153      0.50641    1.98943
  1   154      0.62278    1.96653


Fermi level: 1.03013

No gap

Forces in eV/Ang:
  0 Au   -0.00390   -0.02938   -0.07116
  1 Au    0.03300    0.02006   -0.03931
  2 Au   -0.03832    0.01959   -0.05066
  3 Au   -0.00131    0.01941   -0.02931
  4 Au   -0.00221   -0.02567   -0.05095
  5 Au   -0.00211    0.01884   -0.04503
  6 Au    0.01200   -0.00897   -0.05241
  7 Au   -0.01518   -0.00845   -0.07232
  8 Au   -0.00217   -0.01904   -0.02652
  9 Au    0.00797   -0.02527    0.02966
 10 Au   -0.00593   -0.03433    0.01945
 11 Au    0.00335    0.03091   -0.01824
 12 Au    0.00140    0.03125   -0.02674
 13 Au   -0.00336   -0.00229    0.00301
 14 Au    0.00447   -0.01036    0.01128
 15 Au    0.04157    0.00209    0.05058
 16 Au   -0.00089    0.00564   -0.09755
 17 Au   -0.03672    0.01116    0.05588
 18 Au   -0.20426    0.01087    0.37342
 19 Au    0.19556    0.02517    0.37802
 20 Au    0.00353   -0.00993    0.06767
 21 Au    0.00046    0.27988   -0.05553
 22 Au    0.01220    0.02658    0.04886
 23 Au   -0.00984    0.03875    0.04695
 24 Au   -0.00210   -0.01363    0.03747
 25 Au    0.00274   -0.32974   -0.06190
 26 Au    0.00753   -0.02668    0.03990
 27 O     0.00231   -0.02171   -0.41695
 28 C     0.00410   -0.01224   -0.00896

System changes: positions 

Initializing position-dependent things.

Density initialized from wave functions
                                              
                                              
                                              
                                              
                                              
                                              
                                              
                                              
           O                                  
                  Au     Au     Au            
           CAu      Au     Au                 
                   Au     Au     Au           
       Au     Au     AAu    Au                
                                              
        Au     Au     AAu    Au     Au        
                                              
                 Au     Au     Au             
                                              
           Au      Au     Au                  
                                              
                                              
                                              
                                              

Positions:
   0 Au     1.476793    0.852627    6.000000    ( 0.0000,  0.0000,  0.0000)
   1 Au     4.430378    0.852627    6.000000    ( 0.0000,  0.0000,  0.0000)
   2 Au     7.383963    0.852627    6.000000    ( 0.0000,  0.0000,  0.0000)
   3 Au     2.953585    3.410506    6.000000    ( 0.0000,  0.0000,  0.0000)
   4 Au     5.907170    3.410506    6.000000    ( 0.0000,  0.0000,  0.0000)
   5 Au     8.860755    3.410506    6.000000    ( 0.0000,  0.0000,  0.0000)
   6 Au     4.430378    5.968386    6.000000    ( 0.0000,  0.0000,  0.0000)
   7 Au     7.383963    5.968386    6.000000    ( 0.0000,  0.0000,  0.0000)
   8 Au    10.337548    5.968386    6.000000    ( 0.0000,  0.0000,  0.0000)
   9 Au    -0.000000    1.705253    8.411592    ( 0.0000,  0.0000,  0.0000)
  10 Au     2.953585    1.705253    8.411592    ( 0.0000,  0.0000,  0.0000)
  11 Au     5.907170    1.705253    8.411592    ( 0.0000,  0.0000,  0.0000)
  12 Au     1.476793    4.263133    8.411592    ( 0.0000,  0.0000,  0.0000)
  13 Au     4.430378    4.263133    8.411592    ( 0.0000,  0.0000,  0.0000)
  14 Au     7.383963    4.263133    8.411592    ( 0.0000,  0.0000,  0.0000)
  15 Au     2.953585    6.821012    8.411592    ( 0.0000,  0.0000,  0.0000)
  16 Au     5.907170    6.821012    8.411592    ( 0.0000,  0.0000,  0.0000)
  17 Au     8.860755    6.821012    8.411592    ( 0.0000,  0.0000,  0.0000)
  18 Au     0.000000    0.000000   10.823184    ( 0.0000,  0.0000,  0.0000)
  19 Au     2.953585    0.000000   10.823184    ( 0.0000,  0.0000,  0.0000)
  20 Au     5.907170    0.000000   10.823184    ( 0.0000,  0.0000,  0.0000)
  21 Au     1.476793    2.557880   10.823184    ( 0.0000,  0.0000,  0.0000)
  22 Au     4.430378    2.557880   10.823184    ( 0.0000,  0.0000,  0.0000)
  23 Au     7.383963    2.557880   10.823184    ( 0.0000,  0.0000,  0.0000)
  24 Au     2.953585    5.115759   10.823184    ( 0.0000,  0.0000,  0.0000)
  25 Au     5.907170    5.115759   10.823184    ( 0.0000,  0.0000,  0.0000)
  26 Au     8.860755    5.115759   10.823184    ( 0.0000,  0.0000,  0.0000)
  27 O      1.476793    0.000000   13.973524    ( 0.0000,  0.0000,  0.0000)
  28 C      1.480375   -0.024867   12.818172    ( 0.0000,  0.0000,  0.0000)

Unit cell:
           periodic     x           y           z      points  spacing
  1. axis:    yes    8.860755    0.000000    0.000000    45     0.1705
  2. axis:    yes    4.430378    7.673639    0.000000    45     0.1705
  3. axis:    no     0.000000    0.000000   16.823184    84     0.2003

  Lengths:   8.860755   8.860755  16.823184
  Angles:   90.000000  90.000000  60.000000

Effective grid spacing dv^(1/3) = 0.1888

     iter     time        total  log10-change:
                         energy  eigst   dens
iter:   1 09:52:34   -92.937056  -4.83
iter:   2 09:52:41   -92.937063  -6.10  -4.20c
iter:   3 09:52:48   -92.937089c -6.38  -4.31c
iter:   4 09:52:55   -92.937092c -7.23  -4.58c
iter:   5 09:53:02   -92.937069c -7.28  -4.55c
iter:   6 09:53:09   -92.937070c -8.19c -4.88c

Converged after 6 iterations.

Dipole moment: (-0.162771, 1.450916, 0.100643) |e|*Ang

Energy contributions relative to reference atoms: (reference = -13951221.800367)

Kinetic:       -295.255299
Potential:     +234.338865
External:        +0.000000
XC:             -34.876134
Entropy (-ST):   -0.307277
Local:           +3.009137
--------------------------
Free energy:    -93.090708
Extrapolated:   -92.937070

Showing only first 2 kpts
 Kpt  Band  Eigenvalues  Occupancy
  0   151      1.03357    0.98370
  0   152      1.07191    0.79495
  0   153      1.17237    0.38912
  0   154      1.25160    0.19719

  1   151     -0.19474    1.99999
  1   152      0.19283    1.99954
  1   153      0.50653    1.98943
  1   154      0.62275    1.96660


Fermi level: 1.03031

No gap

Forces in eV/Ang:
  0 Au   -0.00366   -0.02941   -0.06937
  1 Au    0.03288    0.02014   -0.03728
  2 Au   -0.03844    0.01970   -0.04905
  3 Au   -0.00167    0.01934   -0.02762
  4 Au   -0.00220   -0.02602   -0.04888
  5 Au   -0.00177    0.01863   -0.04316
  6 Au    0.01201   -0.00879   -0.05082
  7 Au   -0.01542   -0.00803   -0.07024
  8 Au   -0.00200   -0.01922   -0.02509
  9 Au    0.00790   -0.02457    0.02998
 10 Au   -0.00580   -0.03425    0.02001
 11 Au    0.00346    0.03085   -0.01818
 12 Au    0.00150    0.03051   -0.02691
 13 Au   -0.00395   -0.00217    0.00357
 14 Au    0.00501   -0.01031    0.01191
 15 Au    0.04142    0.00171    0.05056
 16 Au   -0.00055    0.00535   -0.09805
 17 Au   -0.03742    0.01136    0.05669
 18 Au   -0.20443    0.01712    0.37323
 19 Au    0.19493    0.03141    0.37532
 20 Au    0.00340   -0.01050    0.06598
 21 Au   -0.00055    0.27260   -0.05066
 22 Au    0.01203    0.02658    0.04810
 23 Au   -0.00880    0.03825    0.04713
 24 Au   -0.00251   -0.01364    0.03499
 25 Au    0.00165   -0.33686   -0.06995
 26 Au    0.00886   -0.02733    0.03650
 27 O    -0.00204   -0.00005   -0.42029
 28 C    -0.00605    0.03575   -0.00636

System changes: positions 

Initializing position-dependent things.

Density initialized from wave functions
                                              
                                              
                                              
                                              
                                              
                                              
                                              
                                              
           O                                  
                  Au     Au     Au            
           CAu      Au     Au                 
                   Au     Au     Au           
       Au     Au     AAu    Au                
                                              
        Au     Au     AAu    Au     Au        
                                              
                 Au     Au     Au             
                                              
           Au      Au     Au                  
                                              
                                              
                                              
                                              

Positions:
   0 Au     1.476793    0.852627    6.000000    ( 0.0000,  0.0000,  0.0000)
   1 Au     4.430378    0.852627    6.000000    ( 0.0000,  0.0000,  0.0000)
   2 Au     7.383963    0.852627    6.000000    ( 0.0000,  0.0000,  0.0000)
   3 Au     2.953585    3.410506    6.000000    ( 0.0000,  0.0000,  0.0000)
   4 Au     5.907170    3.410506    6.000000    ( 0.0000,  0.0000,  0.0000)
   5 Au     8.860755    3.410506    6.000000    ( 0.0000,  0.0000,  0.0000)
   6 Au     4.430378    5.968386    6.000000    ( 0.0000,  0.0000,  0.0000)
   7 Au     7.383963    5.968386    6.000000    ( 0.0000,  0.0000,  0.0000)
   8 Au    10.337548    5.968386    6.000000    ( 0.0000,  0.0000,  0.0000)
   9 Au    -0.000000    1.705253    8.411592    ( 0.0000,  0.0000,  0.0000)
  10 Au     2.953585    1.705253    8.411592    ( 0.0000,  0.0000,  0.0000)
  11 Au     5.907170    1.705253    8.411592    ( 0.0000,  0.0000,  0.0000)
  12 Au     1.476793    4.263133    8.411592    ( 0.0000,  0.0000,  0.0000)
  13 Au     4.430378    4.263133    8.411592    ( 0.0000,  0.0000,  0.0000)
  14 Au     7.383963    4.263133    8.411592    ( 0.0000,  0.0000,  0.0000)
  15 Au     2.953585    6.821012    8.411592    ( 0.0000,  0.0000,  0.0000)
  16 Au     5.907170    6.821012    8.411592    ( 0.0000,  0.0000,  0.0000)
  17 Au     8.860755    6.821012    8.411592    ( 0.0000,  0.0000,  0.0000)
  18 Au     0.000000    0.000000   10.823184    ( 0.0000,  0.0000,  0.0000)
  19 Au     2.953585    0.000000   10.823184    ( 0.0000,  0.0000,  0.0000)
  20 Au     5.907170    0.000000   10.823184    ( 0.0000,  0.0000,  0.0000)
  21 Au     1.476793    2.557880   10.823184    ( 0.0000,  0.0000,  0.0000)
  22 Au     4.430378    2.557880   10.823184    ( 0.0000,  0.0000,  0.0000)
  23 Au     7.383963    2.557880   10.823184    ( 0.0000,  0.0000,  0.0000)
  24 Au     2.953585    5.115759   10.823184    ( 0.0000,  0.0000,  0.0000)
  25 Au     5.907170    5.115759   10.823184    ( 0.0000,  0.0000,  0.0000)
  26 Au     8.860755    5.115759   10.823184    ( 0.0000,  0.0000,  0.0000)
  27 O      1.476793    0.000000   13.973524    ( 0.0000,  0.0000,  0.0000)
  28 C      1.478853   -0.016013   12.817975    ( 0.0000,  0.0000,  0.0000)

Unit cell:
           periodic     x           y           z      points  spacing
  1. axis:    yes    8.860755    0.000000    0.000000    45     0.1705
  2. axis:    yes    4.430378    7.673639    0.000000    45     0.1705
  3. axis:    no     0.000000    0.000000   16.823184    84     0.2003

  Lengths:   8.860755   8.860755  16.823184
  Angles:   90.000000  90.000000  60.000000

Effective grid spacing dv^(1/3) = 0.1888

     iter     time        total  log10-change:
                         energy  eigst   dens
iter:   1 09:53:20   -92.937242  -4.30
iter:   2 09:53:27   -92.937226  -5.59  -4.05c
iter:   3 09:53:34   -92.937171c -5.88  -4.15c
iter:   4 09:53:41   -92.937174c -6.63  -4.33c
iter:   5 09:53:48   -92.937167c -6.74  -4.32c
iter:   6 09:53:55   -92.937174c -7.02  -4.62c
iter:   7 09:54:02   -92.937162c -7.24  -4.72c
iter:   8 09:54:08   -92.937158c -7.80c -4.81c

Converged after 8 iterations.

Dipole moment: (-0.483745, 0.910022, 0.100703) |e|*Ang

Energy contributions relative to reference atoms: (reference = -13951221.800367)

Kinetic:       -295.265787
Potential:     +234.348141
External:        +0.000000
XC:             -34.875217
Entropy (-ST):   -0.307308
Local:           +3.009358
--------------------------
Free energy:    -93.090812
Extrapolated:   -92.937158

Showing only first 2 kpts
 Kpt  Band  Eigenvalues  Occupancy
  0   151      1.03375    0.98312
  0   152      1.07194    0.79512
  0   153      1.17252    0.38885
  0   154      1.25221    0.19622

  1   151     -0.19468    1.99999
  1   152      0.19292    1.99954
  1   153      0.50662    1.98943
  1   154      0.62314    1.96649


Fermi level: 1.03037

No gap

Forces in eV/Ang:
  0 Au   -0.00312   -0.03201   -0.06906
  1 Au    0.03382    0.01890   -0.03681
  2 Au   -0.03995    0.01874   -0.04795
  3 Au    0.00111    0.02167   -0.02649
  4 Au   -0.00236   -0.02315   -0.04821
  5 Au   -0.00438    0.02198   -0.04239
  6 Au    0.01306   -0.01110   -0.04986
  7 Au   -0.01556   -0.01005   -0.06987
  8 Au   -0.00287   -0.01869   -0.02436
  9 Au    0.00745   -0.02487    0.03227
 10 Au   -0.00519   -0.03376    0.02122
 11 Au    0.00308    0.03145   -0.01813
 12 Au    0.00148    0.03178   -0.02618
 13 Au   -0.00301   -0.00230    0.00141
 14 Au    0.00404   -0.01014    0.00947
 15 Au    0.04164    0.00164    0.05046
 16 Au   -0.00080    0.00457   -0.09908
 17 Au   -0.03674    0.01076    0.05486
 18 Au   -0.20412    0.01575    0.37240
 19 Au    0.19407    0.03011    0.37624
 20 Au    0.00450   -0.00885    0.06473
 21 Au    0.00007    0.27731   -0.05367
 22 Au    0.01036    0.02506    0.04666
 23 Au   -0.00751    0.03644    0.04514
 24 Au   -0.00393   -0.01475    0.03370
 25 Au    0.00228   -0.33086   -0.06885
 26 Au    0.00994   -0.02860    0.03584
 27 O     0.00195   -0.00931   -0.42504
 28 C     0.00386   -0.00531   -0.00384

Timing:                                      incl.     excl.
-------------------------------------------------------------------
Density initialized from wave functions:     7.517     7.517   0.8% |
 Symmetrize density:                         0.000     0.000   0.0% |
Forces:                                     39.651    39.651   4.0% |-|
Hamiltonian:                                 8.355     0.054   0.0% |
 Atomic:                                     1.640     0.855   0.1% |
  XC Correction:                             0.785     0.785   0.1% |
 Calculate atomic Hamiltonians:              3.790     3.790   0.4% |
 Communicate:                                0.047     0.047   0.0% |
 Initialize Hamiltonian:                     0.001     0.001   0.0% |
 Poisson:                                    0.036     0.036   0.0% |
 XC 3D grid:                                 2.788     2.788   0.3% |
LCAO initialization:                         9.402     0.258   0.0% |
 LCAO eigensolver:                           1.208     0.000   0.0% |
  Calculate projections:                     0.002     0.002   0.0% |
  DenseAtomicCorrection:                     0.003     0.003   0.0% |
  Distribute overlap matrix:                 0.208     0.208   0.0% |
  Orbital Layouts:                           0.033     0.033   0.0% |
  Potential matrix:                          0.949     0.949   0.1% |
  Sum over cells:                            0.012     0.012   0.0% |
 LCAO to grid:                               7.521     7.521   0.8% |
 Set positions (LCAO WFS):                   0.415     0.181   0.0% |
  Basic WFS set positions:                   0.001     0.001   0.0% |
  Basis functions set positions:             0.000     0.000   0.0% |
  P tci:                                     0.131     0.131   0.0% |
  ST tci:                                    0.074     0.074   0.0% |
  mktci:                                     0.028     0.028   0.0% |
PWDescriptor:                                0.022     0.022   0.0% |
Redistribute:                                0.012     0.012   0.0% |
SCF-cycle:                                 922.719    17.136   1.7% ||
 Davidson:                                 711.981   150.267  15.1% |-----|
  Apply H:                                  90.119    87.990   8.8% |---|
   HMM T:                                    2.129     2.129   0.2% |
  Subspace diag:                           130.039     0.019   0.0% |
   calc_h_matrix:                          104.926    15.052   1.5% ||
    Apply H:                                89.874    87.751   8.8% |---|
     HMM T:                                  2.123     2.123   0.2% |
   diagonalize:                              1.847     1.847   0.2% |
   rotate_psi:                              23.248    23.248   2.3% ||
  calc. matrices:                          268.187    89.292   8.9% |---|
   Apply H:                                178.896   174.665  17.5% |------|
    HMM T:                                   4.231     4.231   0.4% |
  diagonalize:                              28.806    28.806   2.9% ||
  rotate_psi:                               44.563    44.563   4.5% |-|
 Density:                                   94.620     0.004   0.0% |
  Atomic density matrices:                   0.463     0.463   0.0% |
  Mix:                                      47.548    47.548   4.8% |-|
  Multipole moments:                         0.056     0.056   0.0% |
  Pseudo density:                           46.550    46.547   4.7% |-|
   Symmetrize density:                       0.003     0.003   0.0% |
 Hamiltonian:                               94.563     0.609   0.1% |
  Atomic:                                   18.563     9.645   1.0% |
   XC Correction:                            8.918     8.918   0.9% |
  Calculate atomic Hamiltonians:            43.076    43.076   4.3% |-|
  Communicate:                               0.297     0.297   0.0% |
  Poisson:                                   0.428     0.428   0.0% |
  XC 3D grid:                               31.590    31.590   3.2% ||
 Orthonormalize:                             4.419     0.002   0.0% |
  calc_s_matrix:                             0.574     0.574   0.1% |
  inverse-cholesky:                          0.056     0.056   0.0% |
  projections:                               2.788     2.788   0.3% |
  rotate_psi_s:                              0.998     0.998   0.1% |
Set symmetry:                                0.001     0.001   0.0% |
Other:                                      10.567    10.567   1.1% |
-------------------------------------------------------------------
Total:                                               998.247 100.0%

Memory usage: 771.18 MiB
Date: Thu Mar  2 09:54:13 2023
