
  ___ ___ ___ _ _ _  
 |   |   |_  | | | | 
 | | | | | . | | | | 
 |__ |  _|___|_____|  22.8.0
 |___|_|             

User:   gotols@vera07-3
Date:   Thu Mar  2 14:04:23 2023
Arch:   x86_64
Pid:    1667366
CWD:    /cephyr/users/gotols/Vera/TIF320-Computational-materials-and-molecular-physics-Assignments
Python: 3.10.4
gpaw:   /apps/Arch/software/GPAW/22.8.0-foss-2022a/lib/python3.10/site-packages/gpaw
_gpaw:  /apps/Arch/software/GPAW/22.8.0-foss-2022a/lib/python3.10/site-packages/
        _gpaw.cpython-310-x86_64-linux-gnu.so
ase:    /apps/Arch/software/ASE/3.22.1-foss-2022a/lib/python3.10/site-packages/ase (version 3.22.1)
numpy:  /apps/Arch/software/SciPy-bundle/2022.05-foss-2022a/lib/python3.10/site-packages/numpy (version 1.22.3)
scipy:  /apps/Arch/software/SciPy-bundle/2022.05-foss-2022a/lib/python3.10/site-packages/scipy (version 1.8.1)
libxc:  5.2.3
units:  Angstrom and eV
cores: 16
OpenMP: False
OMP_NUM_THREADS: 1

Input parameters:
  kpts: [4 4 1]
  mode: {ecut: 450.00000000000006,
         name: pw}
  xc: PBE

System changes: positions, numbers, cell, pbc, initial_charges, initial_magmoms 

Initialize ...

species:
  Pt:
    name: Platinum
    id: 5ed695806aff0c961dba1a84acd7f4b2
    Z: 78.0
    valence: 16
    core: 62
    charge: 0.0
    file: /apps/Common/software/GPAW-setups/0.9.20000/Pt.PBE.gz
    compensation charges: {type: gauss,
                           rc: 0.41,
                           lmax: 2}
    cutoffs: {filter: 2.26,
              core: 2.26}
    valence states:
      #              energy  rcut
      - 6s(1.00)    -5.628   1.307
      - 5p(6.00)   -56.051   1.371
      - 6p(0.00)    -0.845   1.371
      - 5d(9.00)    -6.153   1.307
      -  s          21.583   1.307
      -  d          21.058   1.307
  
    # Using partial waves for Pt as LCAO basis

  O:
    name: Oxygen
    id: 32ecd46bf208036f09c70b0ec9a88b78
    Z: 8.0
    valence: 6
    core: 2
    charge: 0.0
    file: /apps/Common/software/GPAW-setups/0.9.20000/O.PBE.gz
    compensation charges: {type: gauss,
                           rc: 0.21,
                           lmax: 2}
    cutoffs: {filter: 1.17,
              core: 0.83}
    valence states:
      #              energy  rcut
      - 2s(2.00)   -23.961   0.688
      - 2p(4.00)    -9.029   0.598
      -  s           3.251   0.688
      -  p          18.182   0.598
      -  d           0.000   0.619
  
    # Using partial waves for O as LCAO basis

Reference energy: -13512175.647022  # eV

Spin-paired calculation

Convergence criteria:
 Maximum [total energy] change in last 3 cyles: 0.0005 eV / electron
 Maximum integral of absolute [dens]ity change: 0.0001 electrons / valence electron
 Maximum integral of absolute [eigenst]ate change: 4e-08 eV^2 / valence electron
 Maximum number of scf [iter]ations: 333
 (Square brackets indicate name in SCF output, whereas a 'c' in
 the SCF output indicates the quantity has converged.)

Symmetries present (total): 2

  ( 1  0  0)  ( 0  1  0)
  ( 0  1  0)  ( 1  0  0)
  ( 0  0  1)  ( 0  0  1)

16 k-points: 4 x 4 x 1 Monkhorst-Pack grid
6 k-points in the irreducible part of the Brillouin zone
       k-points in crystal coordinates                weights
   0:     0.12500000   -0.12500000    0.00000000          2/16
   1:     0.12500000    0.12500000    0.00000000          2/16
   2:     0.37500000   -0.37500000    0.00000000          2/16
   3:     0.37500000   -0.12500000    0.00000000          4/16
   4:     0.37500000    0.12500000    0.00000000          4/16
   5:     0.37500000    0.37500000    0.00000000          2/16

Wave functions: Plane wave expansion
  Cutoff energy: 450.000 eV
  Number of coefficients (min, max): 22059, 22107
  Pulay-stress correction: 0.000000 eV/Ang^3 (de/decut=0.000000)
  Using FFTW library
  ScaLapack parameters: grid=1x1, blocksize=None
  Wavefunction extrapolation:
    Improved wavefunction reuse through dual PAW basis 

Occupation numbers: Fermi-Dirac:
  width: 0.1000  # eV
 

Eigensolver
   Davidson(niter=2) 

Densities:
  Coarse grid: 42*42*84 grid
  Fine grid: 84*84*168 grid
  Total Charge: 0.000000 

Density mixing:
  Method: separate
  Backend: pulay
  Linear mixing parameter: 0.05
  old densities: 5
  Damping of long wavelength oscillations: 50 

Hamiltonian:
  XC and Coulomb potentials evaluated on a 84*84*168 grid
  Using the PBE Exchange-Correlation functional
  External potential:
    NoExternalPotential
 

XC parameters: PBE with 2 nearest neighbor stencil

Memory estimate:
  Process memory now: 926.60 MiB
  Calculator: 392.10 MiB
    Density: 8.75 MiB
      Arrays: 3.67 MiB
      Localized functions: 3.66 MiB
      Mixer: 1.41 MiB
    Hamiltonian: 2.49 MiB
      Arrays: 2.40 MiB
      XC: 0.00 MiB
      Poisson: 0.00 MiB
      vbar: 0.09 MiB
    Wavefunctions: 380.86 MiB
      Arrays psit_nG: 270.20 MiB
      Eigensolver: 102.64 MiB
      Projections: 0.76 MiB
      Projectors: 1.27 MiB
      PW-descriptor: 6.00 MiB

Total number of cores used: 16
Parallelization over k-points: 2
Domain decomposition: 2 x 2 x 2

Number of atoms: 28
Number of atomic orbitals: 328
Number of bands in calculation: 267
Number of valence electrons: 438
Bands to converge: occupied

... initialized

Initializing position-dependent things.

Density initialized from atomic densities
Creating initial wave functions:
  267 bands from LCAO basis set

                                            
                                            
                                            
                                            
                                            
                                            
               O                            
                 Pt     Pt     Pt           
            Pt     Pt     Pt                
                  Pt     Pt    Pt           
       Pt    PPt    PPt    Pt               
                                            
        Pt     Pt    PPt    Pt    Pt        
                                            
                Pt     Pt     Pt            
           Pt     Pt     Pt                 
                                            
                                            
                                            
                                            

Positions:
   0 Pt     1.403607    0.810373    6.000000    ( 0.0000,  0.0000,  0.0000)
   1 Pt     4.210821    0.810373    6.000000    ( 0.0000,  0.0000,  0.0000)
   2 Pt     7.018035    0.810373    6.000000    ( 0.0000,  0.0000,  0.0000)
   3 Pt     2.807214    3.241491    6.000000    ( 0.0000,  0.0000,  0.0000)
   4 Pt     5.614428    3.241491    6.000000    ( 0.0000,  0.0000,  0.0000)
   5 Pt     8.421642    3.241491    6.000000    ( 0.0000,  0.0000,  0.0000)
   6 Pt     4.210821    5.672610    6.000000    ( 0.0000,  0.0000,  0.0000)
   7 Pt     7.018035    5.672610    6.000000    ( 0.0000,  0.0000,  0.0000)
   8 Pt     9.825249    5.672610    6.000000    ( 0.0000,  0.0000,  0.0000)
   9 Pt    -0.000000    1.620746    8.292081    ( 0.0000,  0.0000,  0.0000)
  10 Pt     2.807214    1.620746    8.292081    ( 0.0000,  0.0000,  0.0000)
  11 Pt     5.614428    1.620746    8.292081    ( 0.0000,  0.0000,  0.0000)
  12 Pt     1.403607    4.051864    8.292081    ( 0.0000,  0.0000,  0.0000)
  13 Pt     4.210821    4.051864    8.292081    ( 0.0000,  0.0000,  0.0000)
  14 Pt     7.018035    4.051864    8.292081    ( 0.0000,  0.0000,  0.0000)
  15 Pt     2.807214    6.482983    8.292081    ( 0.0000,  0.0000,  0.0000)
  16 Pt     5.614428    6.482983    8.292081    ( 0.0000,  0.0000,  0.0000)
  17 Pt     8.421642    6.482983    8.292081    ( 0.0000,  0.0000,  0.0000)
  18 Pt     0.000000    0.000000   10.584161    ( 0.0000,  0.0000,  0.0000)
  19 Pt     2.807214    0.000000   10.584161    ( 0.0000,  0.0000,  0.0000)
  20 Pt     5.614428    0.000000   10.584161    ( 0.0000,  0.0000,  0.0000)
  21 Pt     1.403607    2.431119   10.584161    ( 0.0000,  0.0000,  0.0000)
  22 Pt     4.210821    2.431119   10.584161    ( 0.0000,  0.0000,  0.0000)
  23 Pt     7.018035    2.431119   10.584161    ( 0.0000,  0.0000,  0.0000)
  24 Pt     2.807214    4.862237   10.584161    ( 0.0000,  0.0000,  0.0000)
  25 Pt     5.614428    4.862237   10.584161    ( 0.0000,  0.0000,  0.0000)
  26 Pt     8.421642    4.862237   10.584161    ( 0.0000,  0.0000,  0.0000)
  27 O      2.807214    1.620746   12.584161    ( 0.0000,  0.0000,  0.0000)

Unit cell:
           periodic     x           y           z      points  spacing
  1. axis:    yes    8.421642    0.000000    0.000000    42     0.1737
  2. axis:    yes    4.210821    7.293356    0.000000    42     0.1737
  3. axis:    no     0.000000    0.000000   16.584161    84     0.1974

  Lengths:   8.421642   8.421642  16.584161
  Angles:   90.000000  90.000000  60.000000

Effective grid spacing dv^(1/3) = 0.1901

     iter     time        total  log10-change:
                         energy  eigst   dens
iter:   1 14:04:45  -179.614830
iter:   2 14:04:52  -175.046533  -1.23  -1.39
iter:   3 14:05:00  -170.572114  -1.71  -1.44
iter:   4 14:05:08  -171.094653  -2.04  -1.54
iter:   5 14:05:16  -169.297862  -2.47  -1.53
iter:   6 14:05:24  -167.154658  -1.41  -1.59
iter:   7 14:05:32  -165.347467  -2.52  -1.92
iter:   8 14:05:40  -165.246244  -3.12  -2.04
iter:   9 14:05:48  -165.223048c -3.97  -2.15
iter:  10 14:05:55  -165.257668c -2.87  -2.20
iter:  11 14:06:03  -165.170142c -3.20  -2.28
iter:  12 14:06:11  -165.122848c -3.73  -2.45
iter:  13 14:06:19  -165.110665c -3.96  -2.63
iter:  14 14:06:27  -165.106787c -4.32  -2.75
iter:  15 14:06:35  -165.098303c -3.69  -2.83
iter:  16 14:06:43  -165.098403c -4.68  -3.35
iter:  17 14:06:50  -165.099760c -4.87  -3.34
iter:  18 14:06:58  -165.101566c -4.76  -3.44
iter:  19 14:07:06  -165.101629c -5.51  -3.68
iter:  20 14:07:14  -165.101110c -5.85  -3.76
iter:  21 14:07:22  -165.101111c -6.13  -3.80
iter:  22 14:07:30  -165.100942c -6.50  -3.87
iter:  23 14:07:38  -165.100593c -6.86  -3.91
iter:  24 14:07:46  -165.100794c -6.56  -3.95
iter:  25 14:07:54  -165.100641c -7.24  -4.31c
iter:  26 14:08:01  -165.100722c -7.70c -4.43c

Converged after 26 iterations.

Dipole moment: (0.325413, 0.187877, -0.479266) |e|*Ang

Energy contributions relative to reference atoms: (reference = -13512175.647022)

Kinetic:       -324.552470
Potential:     +250.918772
External:        +0.000000
XC:             -75.929091
Entropy (-ST):   -1.852481
Local:          -14.611693
--------------------------
Free energy:   -166.026963
Extrapolated:  -165.100722

Showing only first 2 kpts
 Kpt  Band  Eigenvalues  Occupancy
  0   217      1.16481    1.34429
  0   218      1.17194    1.31249
  0   219      1.20438    1.15974
  0   220      1.20701    1.14689

  1   217      1.01738    1.79910
  1   218      1.05078    1.73019
  1   219      1.09093    1.62208
  1   220      1.09730    1.60215


Fermi level: 1.23660

No gap

Forces in eV/Ang:
  0 Pt    0.02503    0.01445   -0.00809
  1 Pt   -0.02653    0.00586   -0.00481
  2 Pt   -0.00486    0.01350   -0.06342
  3 Pt   -0.00819   -0.02590   -0.00481
  4 Pt    0.02912    0.01681   -0.02778
  5 Pt   -0.02440    0.01456   -0.03560
  6 Pt    0.00926   -0.01096   -0.06342
  7 Pt    0.00041   -0.02841   -0.03560
  8 Pt   -0.01762   -0.01017   -0.06610
  9 Pt   -0.00631    0.07800    0.08826
 10 Pt   -0.00082   -0.00047   -0.27740
 11 Pt    0.01000    0.07807    0.09808
 12 Pt   -0.07125   -0.03630    0.09227
 13 Pt    0.07261   -0.03037    0.09808
 14 Pt    0.00406    0.00234   -0.02280
 15 Pt    0.00083    0.00048   -0.07823
 16 Pt    0.06439   -0.04447    0.08826
 17 Pt   -0.06706   -0.04356    0.09227
 18 Pt   -0.18133   -0.10469   -0.00638
 19 Pt   -0.00103    0.51414    1.15658
 20 Pt    0.18261   -0.10112   -0.00932
 21 Pt    0.44474   -0.25796    1.15658
 22 Pt   -0.43310   -0.25005    1.15205
 23 Pt   -0.00200    0.00338    0.01337
 24 Pt    0.00373    0.20870   -0.00932
 25 Pt    0.00193   -0.00342    0.01337
 26 Pt   -0.00484   -0.00280    0.00997
 27 O     0.00002    0.00001   -3.30890

System changes: positions 

Initializing position-dependent things.

Density initialized from wave functions
                                            
                                            
                                            
                                            
                                            
                                            
               O                            
                 Pt     Pt     Pt           
            Pt     Pt     Pt                
       Pt     Pt  Pt Pt  Pt    Pt           
             Pt     Pt     Pt               
        Pt     Pt     Pt                    
                     Pt     Pt    Pt        
                Pt     Pt     Pt            
                                            
           Pt     Pt     Pt                 
                                            
                                            
                                            
                                            

Positions:
   0 Pt     1.403607    0.810373    6.000000    ( 0.0000,  0.0000,  0.0000)
   1 Pt     4.210821    0.810373    6.000000    ( 0.0000,  0.0000,  0.0000)
   2 Pt     7.018035    0.810373    6.000000    ( 0.0000,  0.0000,  0.0000)
   3 Pt     2.807214    3.241491    6.000000    ( 0.0000,  0.0000,  0.0000)
   4 Pt     5.614428    3.241491    6.000000    ( 0.0000,  0.0000,  0.0000)
   5 Pt     8.421642    3.241491    6.000000    ( 0.0000,  0.0000,  0.0000)
   6 Pt     4.210821    5.672610    6.000000    ( 0.0000,  0.0000,  0.0000)
   7 Pt     7.018035    5.672610    6.000000    ( 0.0000,  0.0000,  0.0000)
   8 Pt     9.825249    5.672610    6.000000    ( 0.0000,  0.0000,  0.0000)
   9 Pt    -0.000000    1.620746    8.292081    ( 0.0000,  0.0000,  0.0000)
  10 Pt     2.807214    1.620746    8.292081    ( 0.0000,  0.0000,  0.0000)
  11 Pt     5.614428    1.620746    8.292081    ( 0.0000,  0.0000,  0.0000)
  12 Pt     1.403607    4.051864    8.292081    ( 0.0000,  0.0000,  0.0000)
  13 Pt     4.210821    4.051864    8.292081    ( 0.0000,  0.0000,  0.0000)
  14 Pt     7.018035    4.051864    8.292081    ( 0.0000,  0.0000,  0.0000)
  15 Pt     2.807214    6.482983    8.292081    ( 0.0000,  0.0000,  0.0000)
  16 Pt     5.614428    6.482983    8.292081    ( 0.0000,  0.0000,  0.0000)
  17 Pt     8.421642    6.482983    8.292081    ( 0.0000,  0.0000,  0.0000)
  18 Pt     0.000000    0.000000   10.584161    ( 0.0000,  0.0000,  0.0000)
  19 Pt     2.807214    0.000000   10.584161    ( 0.0000,  0.0000,  0.0000)
  20 Pt     5.614428    0.000000   10.584161    ( 0.0000,  0.0000,  0.0000)
  21 Pt     1.403607    2.431119   10.584161    ( 0.0000,  0.0000,  0.0000)
  22 Pt     4.210821    2.431119   10.584161    ( 0.0000,  0.0000,  0.0000)
  23 Pt     7.018035    2.431119   10.584161    ( 0.0000,  0.0000,  0.0000)
  24 Pt     2.807214    4.862237   10.584161    ( 0.0000,  0.0000,  0.0000)
  25 Pt     5.614428    4.862237   10.584161    ( 0.0000,  0.0000,  0.0000)
  26 Pt     8.421642    4.862237   10.584161    ( 0.0000,  0.0000,  0.0000)
  27 O      2.807217    1.620747   12.184161    ( 0.0000,  0.0000,  0.0000)

Unit cell:
           periodic     x           y           z      points  spacing
  1. axis:    yes    8.421642    0.000000    0.000000    42     0.1737
  2. axis:    yes    4.210821    7.293356    0.000000    42     0.1737
  3. axis:    no     0.000000    0.000000   16.584161    84     0.1974

  Lengths:   8.421642   8.421642  16.584161
  Angles:   90.000000  90.000000  60.000000

Effective grid spacing dv^(1/3) = 0.1901

     iter     time        total  log10-change:
                         energy  eigst   dens
iter:   1 14:08:12  -175.301439  -2.04
iter:   2 14:08:19  -175.703261  -1.51  -1.69
iter:   3 14:08:27  -170.267600  -1.81  -1.65
iter:   4 14:08:35  -166.724153  -2.94  -1.85
iter:   5 14:08:43  -166.591935  -3.77  -2.36
iter:   6 14:08:51  -166.450495  -3.48  -2.49
iter:   7 14:08:59  -166.432485c -3.86  -2.76
iter:   8 14:09:07  -166.384463c -3.50  -2.79
iter:   9 14:09:14  -166.380631c -4.45  -3.05
iter:  10 14:09:22  -166.378157c -5.45  -3.26
iter:  11 14:09:30  -166.378790c -5.37  -3.34
iter:  12 14:09:38  -166.377061c -5.03  -3.36
iter:  13 14:09:46  -166.377181c -5.77  -3.69
iter:  14 14:09:54  -166.377017c -6.31  -3.79
iter:  15 14:10:01  -166.377052c -6.58  -3.94
iter:  16 14:10:09  -166.376780c -6.85  -4.02c
iter:  17 14:10:17  -166.376912c -6.69  -4.17c
iter:  18 14:10:25  -166.376917c -6.97  -4.23c
iter:  19 14:10:33  -166.376872c -7.30  -4.45c
iter:  20 14:10:41  -166.376823c -7.35  -4.42c
iter:  21 14:10:49  -166.376934c -7.64c -4.66c

Converged after 21 iterations.

Dipole moment: (0.004339, 0.002505, -0.227012) |e|*Ang

Energy contributions relative to reference atoms: (reference = -13512175.647022)

Kinetic:       -315.685987
Potential:     +243.079213
External:        +0.000000
XC:             -78.236972
Entropy (-ST):   -1.784579
Local:          -14.640900
--------------------------
Free energy:   -167.269224
Extrapolated:  -166.376934

Showing only first 2 kpts
 Kpt  Band  Eigenvalues  Occupancy
  0   217      1.25081    1.41395
  0   218      1.26797    1.34039
  0   219      1.30049    1.18965
  0   220      1.30718    1.15720

  1   217      1.10781    1.81952
  1   218      1.14846    1.74074
  1   219      1.18278    1.65300
  1   220      1.20074    1.59843


Fermi level: 1.33888

No gap

Forces in eV/Ang:
  0 Pt    0.02802    0.01618   -0.02620
  1 Pt   -0.02875    0.00327   -0.02076
  2 Pt   -0.00416   -0.00868   -0.09952
  3 Pt   -0.01155   -0.02653   -0.02076
  4 Pt    0.02678    0.01546   -0.02796
  5 Pt   -0.01700    0.00972   -0.03948
  6 Pt   -0.00960    0.00074   -0.09952
  7 Pt   -0.00008   -0.01958   -0.03948
  8 Pt    0.00231    0.00133   -0.10817
  9 Pt   -0.03739    0.10050    0.09659
 10 Pt    0.00027    0.00015   -0.46356
 11 Pt    0.03996    0.09992    0.10236
 12 Pt   -0.10489   -0.01788    0.09916
 13 Pt    0.10651   -0.01535    0.10236
 14 Pt    0.00579    0.00335   -0.03982
 15 Pt   -0.00045   -0.00026   -0.11201
 16 Pt    0.06834   -0.08263    0.09659
 17 Pt   -0.06793   -0.08189    0.09916
 18 Pt   -0.27552   -0.15907   -0.03713
 19 Pt   -0.00584    0.42538    1.04506
 20 Pt    0.27780   -0.15510   -0.03701
 21 Pt    0.36547   -0.21775    1.04506
 22 Pt   -0.34757   -0.20067    1.02887
 23 Pt   -0.00460    0.01886    0.01959
 24 Pt    0.00458    0.31813   -0.03701
 25 Pt    0.01403   -0.01341    0.01959
 26 Pt   -0.02237   -0.01291    0.01162
 27 O    -0.00308   -0.00178   -2.49966

System changes: positions 

Initializing position-dependent things.

Density initialized from wave functions
                                            
                                            
                                            
                                            
                                            
                                            
               O Pt     Pt     Pt           
            Pt     Pt     Pt                
                  Pt     Pt    Pt           
       Pt    PPt    PPt    Pt               
                                            
        Pt     Pt    PPt    Pt    Pt        
                                            
                Pt     Pt     Pt            
           Pt     Pt     Pt                 
                                            
                                            
                                            
                                            

Positions:
   0 Pt     1.403607    0.810373    6.000000    ( 0.0000,  0.0000,  0.0000)
   1 Pt     4.210821    0.810373    6.000000    ( 0.0000,  0.0000,  0.0000)
   2 Pt     7.018035    0.810373    6.000000    ( 0.0000,  0.0000,  0.0000)
   3 Pt     2.807214    3.241491    6.000000    ( 0.0000,  0.0000,  0.0000)
   4 Pt     5.614428    3.241491    6.000000    ( 0.0000,  0.0000,  0.0000)
   5 Pt     8.421642    3.241491    6.000000    ( 0.0000,  0.0000,  0.0000)
   6 Pt     4.210821    5.672610    6.000000    ( 0.0000,  0.0000,  0.0000)
   7 Pt     7.018035    5.672610    6.000000    ( 0.0000,  0.0000,  0.0000)
   8 Pt     9.825249    5.672610    6.000000    ( 0.0000,  0.0000,  0.0000)
   9 Pt    -0.000000    1.620746    8.292081    ( 0.0000,  0.0000,  0.0000)
  10 Pt     2.807214    1.620746    8.292081    ( 0.0000,  0.0000,  0.0000)
  11 Pt     5.614428    1.620746    8.292081    ( 0.0000,  0.0000,  0.0000)
  12 Pt     1.403607    4.051864    8.292081    ( 0.0000,  0.0000,  0.0000)
  13 Pt     4.210821    4.051864    8.292081    ( 0.0000,  0.0000,  0.0000)
  14 Pt     7.018035    4.051864    8.292081    ( 0.0000,  0.0000,  0.0000)
  15 Pt     2.807214    6.482983    8.292081    ( 0.0000,  0.0000,  0.0000)
  16 Pt     5.614428    6.482983    8.292081    ( 0.0000,  0.0000,  0.0000)
  17 Pt     8.421642    6.482983    8.292081    ( 0.0000,  0.0000,  0.0000)
  18 Pt     0.000000    0.000000   10.584161    ( 0.0000,  0.0000,  0.0000)
  19 Pt     2.807214    0.000000   10.584161    ( 0.0000,  0.0000,  0.0000)
  20 Pt     5.614428    0.000000   10.584161    ( 0.0000,  0.0000,  0.0000)
  21 Pt     1.403607    2.431119   10.584161    ( 0.0000,  0.0000,  0.0000)
  22 Pt     4.210821    2.431119   10.584161    ( 0.0000,  0.0000,  0.0000)
  23 Pt     7.018035    2.431119   10.584161    ( 0.0000,  0.0000,  0.0000)
  24 Pt     2.807214    4.862237   10.584161    ( 0.0000,  0.0000,  0.0000)
  25 Pt     5.614428    4.862237   10.584161    ( 0.0000,  0.0000,  0.0000)
  26 Pt     8.421642    4.862237   10.584161    ( 0.0000,  0.0000,  0.0000)
  27 O      2.806907    1.620569   11.919971    ( 0.0000,  0.0000,  0.0000)

Unit cell:
           periodic     x           y           z      points  spacing
  1. axis:    yes    8.421642    0.000000    0.000000    42     0.1737
  2. axis:    yes    4.210821    7.293356    0.000000    42     0.1737
  3. axis:    no     0.000000    0.000000   16.584161    84     0.1974

  Lengths:   8.421642   8.421642  16.584161
  Angles:   90.000000  90.000000  60.000000

Effective grid spacing dv^(1/3) = 0.1901

     iter     time        total  log10-change:
                         energy  eigst   dens
iter:   1 14:10:59  -172.421452  -2.10
iter:   2 14:11:07  -172.490690  -1.75  -1.82
iter:   3 14:11:15  -169.959457  -1.98  -1.76
iter:   4 14:11:22  -167.096706  -2.98  -1.89
iter:   5 14:11:30  -166.940099  -3.57  -2.44
iter:   6 14:11:38  -166.864256  -3.65  -2.63
iter:   7 14:11:46  -166.849961c -3.65  -2.85
iter:   8 14:11:54  -166.827848c -4.12  -2.94
iter:   9 14:12:02  -166.819035c -4.41  -3.07
iter:  10 14:12:10  -166.817337c -5.37  -3.33
iter:  11 14:12:17  -166.817561c -5.30  -3.40
iter:  12 14:12:25  -166.817022c -5.38  -3.45
iter:  13 14:12:33  -166.816845c -5.60  -3.64
iter:  14 14:12:41  -166.816790c -6.49  -3.88
iter:  15 14:12:49  -166.816970c -6.31  -3.95
iter:  16 14:12:57  -166.816755c -6.68  -4.00c
iter:  17 14:13:05  -166.816743c -6.88  -4.26c
iter:  18 14:13:12  -166.816712c -7.47c -4.32c

Converged after 18 iterations.

Dipole moment: (-0.247666, -0.142990, -0.082163) |e|*Ang

Energy contributions relative to reference atoms: (reference = -13512175.647022)

Kinetic:       -301.062701
Potential:     +230.480839
External:        +0.000000
XC:             -80.680147
Entropy (-ST):   -1.748300
Local:          -14.680553
--------------------------
Free energy:   -167.690862
Extrapolated:  -166.816712

Showing only first 2 kpts
 Kpt  Band  Eigenvalues  Occupancy
  0   217      1.30208    1.44874
  0   218      1.32414    1.35646
  0   219      1.35794    1.20103
  0   220      1.36422    1.17073

  1   217      1.16407    1.82529
  1   218      1.20747    1.74255
  1   219      1.23570    1.67235
  1   220      1.26240    1.59251


Fermi level: 1.39870

No gap

Forces in eV/Ang:
  0 Pt    0.02268    0.01309   -0.05009
  1 Pt   -0.02259   -0.00161   -0.04307
  2 Pt   -0.00352   -0.03275   -0.13107
  3 Pt   -0.01269   -0.01876   -0.04307
  4 Pt    0.01326    0.00765   -0.02831
  5 Pt   -0.00157    0.00065   -0.04241
  6 Pt   -0.03012    0.01333   -0.13107
  7 Pt   -0.00022   -0.00168   -0.04241
  8 Pt    0.02223    0.01283   -0.14562
  9 Pt   -0.07631    0.08865    0.06278
 10 Pt    0.00035    0.00020   -0.56425
 11 Pt    0.07726    0.08882    0.06355
 12 Pt   -0.11309    0.02549    0.06399
 13 Pt    0.11555    0.02250    0.06355
 14 Pt    0.00657    0.00379   -0.04200
 15 Pt   -0.00081   -0.00047   -0.12586
 16 Pt    0.03862   -0.11041    0.06278
 17 Pt   -0.03447   -0.11068    0.06399
 18 Pt   -0.31909   -0.18423   -0.05696
 19 Pt   -0.00729   -0.21478    0.54194
 20 Pt    0.32108   -0.18102   -0.05337
 21 Pt   -0.18965    0.10107    0.54194
 22 Pt    0.21524    0.12427    0.51351
 23 Pt   -0.00588    0.03847    0.00892
 24 Pt    0.00377    0.36858   -0.05337
 25 Pt    0.03038   -0.02433    0.00892
 26 Pt   -0.04317   -0.02492   -0.00198
 27 O    -0.00799   -0.00461   -0.50760

System changes: positions 

Initializing position-dependent things.

Density initialized from wave functions
                                            
                                            
                                            
                                            
                                            
                                            
               O Pt     Pt     Pt           
            Pt     Pt     Pt                
                  Pt     Pt    Pt           
       Pt    PPt    PPt    Pt               
                                            
        Pt     Pt    PPt    Pt    Pt        
                                            
                Pt     Pt     Pt            
           Pt     Pt     Pt                 
                                            
                                            
                                            
                                            

Positions:
   0 Pt     1.403607    0.810373    6.000000    ( 0.0000,  0.0000,  0.0000)
   1 Pt     4.210821    0.810373    6.000000    ( 0.0000,  0.0000,  0.0000)
   2 Pt     7.018035    0.810373    6.000000    ( 0.0000,  0.0000,  0.0000)
   3 Pt     2.807214    3.241491    6.000000    ( 0.0000,  0.0000,  0.0000)
   4 Pt     5.614428    3.241491    6.000000    ( 0.0000,  0.0000,  0.0000)
   5 Pt     8.421642    3.241491    6.000000    ( 0.0000,  0.0000,  0.0000)
   6 Pt     4.210821    5.672610    6.000000    ( 0.0000,  0.0000,  0.0000)
   7 Pt     7.018035    5.672610    6.000000    ( 0.0000,  0.0000,  0.0000)
   8 Pt     9.825249    5.672610    6.000000    ( 0.0000,  0.0000,  0.0000)
   9 Pt    -0.000000    1.620746    8.292081    ( 0.0000,  0.0000,  0.0000)
  10 Pt     2.807214    1.620746    8.292081    ( 0.0000,  0.0000,  0.0000)
  11 Pt     5.614428    1.620746    8.292081    ( 0.0000,  0.0000,  0.0000)
  12 Pt     1.403607    4.051864    8.292081    ( 0.0000,  0.0000,  0.0000)
  13 Pt     4.210821    4.051864    8.292081    ( 0.0000,  0.0000,  0.0000)
  14 Pt     7.018035    4.051864    8.292081    ( 0.0000,  0.0000,  0.0000)
  15 Pt     2.807214    6.482983    8.292081    ( 0.0000,  0.0000,  0.0000)
  16 Pt     5.614428    6.482983    8.292081    ( 0.0000,  0.0000,  0.0000)
  17 Pt     8.421642    6.482983    8.292081    ( 0.0000,  0.0000,  0.0000)
  18 Pt     0.000000    0.000000   10.584161    ( 0.0000,  0.0000,  0.0000)
  19 Pt     2.807214    0.000000   10.584161    ( 0.0000,  0.0000,  0.0000)
  20 Pt     5.614428    0.000000   10.584161    ( 0.0000,  0.0000,  0.0000)
  21 Pt     1.403607    2.431119   10.584161    ( 0.0000,  0.0000,  0.0000)
  22 Pt     4.210821    2.431119   10.584161    ( 0.0000,  0.0000,  0.0000)
  23 Pt     7.018035    2.431119   10.584161    ( 0.0000,  0.0000,  0.0000)
  24 Pt     2.807214    4.862237   10.584161    ( 0.0000,  0.0000,  0.0000)
  25 Pt     5.614428    4.862237   10.584161    ( 0.0000,  0.0000,  0.0000)
  26 Pt     8.421642    4.862237   10.584161    ( 0.0000,  0.0000,  0.0000)
  27 O      2.806108    1.620107   11.878503    ( 0.0000,  0.0000,  0.0000)

Unit cell:
           periodic     x           y           z      points  spacing
  1. axis:    yes    8.421642    0.000000    0.000000    42     0.1737
  2. axis:    yes    4.210821    7.293356    0.000000    42     0.1737
  3. axis:    no     0.000000    0.000000   16.584161    84     0.1974

  Lengths:   8.421642   8.421642  16.584161
  Angles:   90.000000  90.000000  60.000000

Effective grid spacing dv^(1/3) = 0.1901

     iter     time        total  log10-change:
                         energy  eigst   dens
iter:   1 14:13:23  -167.043666  -3.35
iter:   2 14:13:31  -167.080399  -3.22  -2.54
iter:   3 14:13:38  -166.997839c -3.33  -2.41
iter:   4 14:13:46  -166.837893  -4.20  -2.51
iter:   5 14:13:54  -166.832530c -4.94  -3.34
iter:   6 14:14:02  -166.832070c -5.71  -3.58
iter:   7 14:14:10  -166.831380c -5.19  -3.70
iter:   8 14:14:18  -166.830543c -5.49  -3.84
iter:   9 14:14:26  -166.830301c -6.45  -4.03c
iter:  10 14:14:34  -166.830413c -6.74  -4.09c
iter:  11 14:14:42  -166.830385c -7.08  -4.17c
iter:  12 14:14:49  -166.830457c -7.04  -4.31c
iter:  13 14:14:57  -166.830414c -7.37  -4.47c
iter:  14 14:15:05  -166.830375c -7.60c -4.59c

Converged after 14 iterations.

Dipole moment: (-0.291371, -0.168223, -0.061385) |e|*Ang

Energy contributions relative to reference atoms: (reference = -13512175.647022)

Kinetic:       -298.209459
Potential:     +228.078588
External:        +0.000000
XC:             -81.132287
Entropy (-ST):   -1.744264
Local:          -14.695085
--------------------------
Free energy:   -167.702507
Extrapolated:  -166.830375

Showing only first 2 kpts
 Kpt  Band  Eigenvalues  Occupancy
  0   217      1.30993    1.45194
  0   218      1.33212    1.35939
  0   219      1.36646    1.20169
  0   220      1.37227    1.17367

  1   217      1.17283    1.82512
  1   218      1.21619    1.74242
  1   219      1.24338    1.67501
  1   220      1.27131    1.59168


Fermi level: 1.40736

No gap

Forces in eV/Ang:
  0 Pt    0.02013    0.01162   -0.05377
  1 Pt   -0.01987   -0.00319   -0.04581
  2 Pt   -0.00356   -0.03662   -0.13080
  3 Pt   -0.01270   -0.01561   -0.04581
  4 Pt    0.00953    0.00550   -0.01940
  5 Pt    0.00205   -0.00158   -0.03407
  6 Pt   -0.03349    0.01523   -0.13080
  7 Pt   -0.00035    0.00257   -0.03407
  8 Pt    0.02562    0.01479   -0.14634
  9 Pt   -0.07945    0.08278    0.05739
 10 Pt    0.00042    0.00024   -0.58501
 11 Pt    0.07998    0.08311    0.05738
 12 Pt   -0.10930    0.03199    0.05902
 13 Pt    0.11196    0.02771    0.05738
 14 Pt    0.00666    0.00384   -0.04789
 15 Pt   -0.00094   -0.00054   -0.13190
 16 Pt    0.03197   -0.11020    0.05739
 17 Pt   -0.02694   -0.11065    0.05902
 18 Pt   -0.32387   -0.18699   -0.06926
 19 Pt   -0.00649   -0.45377    0.41104
 20 Pt    0.32527   -0.18332   -0.06526
 21 Pt   -0.39622    0.22126    0.41104
 22 Pt    0.42024    0.24263    0.38346
 23 Pt   -0.00610    0.03910    0.01322
 24 Pt    0.00388    0.37335   -0.06526
 25 Pt    0.03082   -0.02483    0.01322
 26 Pt   -0.04444   -0.02566    0.00091
 27 O    -0.00490   -0.00283   -0.01196

System changes: positions 

Initializing position-dependent things.

Density initialized from wave functions
                                            
                                            
                                            
                                            
                                            
                                            
               O Pt     Pt     Pt           
            Pt     Pt     Pt                
                  Pt     Pt    Pt           
       Pt    PPt    PPt    Pt               
                                            
        Pt     Pt    PPt    Pt    Pt        
                                            
                Pt     Pt     Pt            
           Pt     Pt     Pt                 
                                            
                                            
                                            
                                            

Positions:
   0 Pt     1.403607    0.810373    6.000000    ( 0.0000,  0.0000,  0.0000)
   1 Pt     4.210821    0.810373    6.000000    ( 0.0000,  0.0000,  0.0000)
   2 Pt     7.018035    0.810373    6.000000    ( 0.0000,  0.0000,  0.0000)
   3 Pt     2.807214    3.241491    6.000000    ( 0.0000,  0.0000,  0.0000)
   4 Pt     5.614428    3.241491    6.000000    ( 0.0000,  0.0000,  0.0000)
   5 Pt     8.421642    3.241491    6.000000    ( 0.0000,  0.0000,  0.0000)
   6 Pt     4.210821    5.672610    6.000000    ( 0.0000,  0.0000,  0.0000)
   7 Pt     7.018035    5.672610    6.000000    ( 0.0000,  0.0000,  0.0000)
   8 Pt     9.825249    5.672610    6.000000    ( 0.0000,  0.0000,  0.0000)
   9 Pt    -0.000000    1.620746    8.292081    ( 0.0000,  0.0000,  0.0000)
  10 Pt     2.807214    1.620746    8.292081    ( 0.0000,  0.0000,  0.0000)
  11 Pt     5.614428    1.620746    8.292081    ( 0.0000,  0.0000,  0.0000)
  12 Pt     1.403607    4.051864    8.292081    ( 0.0000,  0.0000,  0.0000)
  13 Pt     4.210821    4.051864    8.292081    ( 0.0000,  0.0000,  0.0000)
  14 Pt     7.018035    4.051864    8.292081    ( 0.0000,  0.0000,  0.0000)
  15 Pt     2.807214    6.482983    8.292081    ( 0.0000,  0.0000,  0.0000)
  16 Pt     5.614428    6.482983    8.292081    ( 0.0000,  0.0000,  0.0000)
  17 Pt     8.421642    6.482983    8.292081    ( 0.0000,  0.0000,  0.0000)
  18 Pt     0.000000    0.000000   10.584161    ( 0.0000,  0.0000,  0.0000)
  19 Pt     2.807214    0.000000   10.584161    ( 0.0000,  0.0000,  0.0000)
  20 Pt     5.614428    0.000000   10.584161    ( 0.0000,  0.0000,  0.0000)
  21 Pt     1.403607    2.431119   10.584161    ( 0.0000,  0.0000,  0.0000)
  22 Pt     4.210821    2.431119   10.584161    ( 0.0000,  0.0000,  0.0000)
  23 Pt     7.018035    2.431119   10.584161    ( 0.0000,  0.0000,  0.0000)
  24 Pt     2.807214    4.862237   10.584161    ( 0.0000,  0.0000,  0.0000)
  25 Pt     5.614428    4.862237   10.584161    ( 0.0000,  0.0000,  0.0000)
  26 Pt     8.421642    4.862237   10.584161    ( 0.0000,  0.0000,  0.0000)
  27 O      2.805642    1.619838   11.877515    ( 0.0000,  0.0000,  0.0000)

Unit cell:
           periodic     x           y           z      points  spacing
  1. axis:    yes    8.421642    0.000000    0.000000    42     0.1737
  2. axis:    yes    4.210821    7.293356    0.000000    42     0.1737
  3. axis:    no     0.000000    0.000000   16.584161    84     0.1974

  Lengths:   8.421642   8.421642  16.584161
  Angles:   90.000000  90.000000  60.000000

Effective grid spacing dv^(1/3) = 0.1901

     iter     time        total  log10-change:
                         energy  eigst   dens
iter:   1 14:15:15  -166.831002  -6.02
iter:   2 14:15:23  -166.831222  -6.28  -3.97
iter:   3 14:15:31  -166.830509c -6.58  -3.92
iter:   4 14:15:39  -166.830514c -7.20  -4.22c
iter:   5 14:15:47  -166.830484c -7.91c -4.67c

Converged after 5 iterations.

Dipole moment: (-0.292518, -0.168885, -0.061301) |e|*Ang

Energy contributions relative to reference atoms: (reference = -13512175.647022)

Kinetic:       -298.556606
Potential:     +228.413998
External:        +0.000000
XC:             -81.111925
Entropy (-ST):   -1.744152
Local:          -14.703875
--------------------------
Free energy:   -167.702560
Extrapolated:  -166.830484

Showing only first 2 kpts
 Kpt  Band  Eigenvalues  Occupancy
  0   217      1.30940    1.45239
  0   218      1.33165    1.35959
  0   219      1.36603    1.20173
  0   220      1.37178    1.17400

  1   217      1.17251    1.82495
  1   218      1.21580    1.74235
  1   219      1.24296    1.67500
  1   220      1.27089    1.59166


Fermi level: 1.40694

No gap

Forces in eV/Ang:
  0 Pt    0.02036    0.01175   -0.05640
  1 Pt   -0.01999   -0.00310   -0.04848
  2 Pt   -0.00357   -0.03720   -0.13452
  3 Pt   -0.01268   -0.01576   -0.04848
  4 Pt    0.00976    0.00563   -0.02310
  5 Pt    0.00186   -0.00140   -0.03784
  6 Pt   -0.03400    0.01550   -0.13452
  7 Pt   -0.00028    0.00232   -0.03784
  8 Pt    0.02605    0.01504   -0.15034
  9 Pt   -0.07995    0.08453    0.05701
 10 Pt    0.00057    0.00033   -0.59836
 11 Pt    0.08005    0.08525    0.05759
 12 Pt   -0.11109    0.03151    0.05885
 13 Pt    0.11385    0.02670    0.05759
 14 Pt    0.00659    0.00380   -0.04826
 15 Pt   -0.00087   -0.00050   -0.13221
 16 Pt    0.03323   -0.11150    0.05701
 17 Pt   -0.02825   -0.11196    0.05885
 18 Pt   -0.32896   -0.18992   -0.06229
 19 Pt   -0.00750   -0.44216    0.43075
 20 Pt    0.33024   -0.18599   -0.05890
 21 Pt   -0.38667    0.21458    0.43075
 22 Pt    0.41177    0.23774    0.40000
 23 Pt   -0.00680    0.04226    0.02259
 24 Pt    0.00404    0.37899   -0.05890
 25 Pt    0.03320   -0.02702    0.02259
 26 Pt   -0.04693   -0.02710    0.01064
 27 O    -0.01957   -0.01130   -0.09152

System changes: positions 

Initializing position-dependent things.

Density initialized from wave functions
                                            
                                            
                                            
                                            
                                            
                 Pt     Pt     Pt           
              O                             
            Pt    PPt    PPt   Pt           
       Pt    PPt    PPt    Pt               
                                            
        Pt     Pt    PPt    Pt    Pt        
                                            
                Pt     Pt     Pt            
           Pt     Pt     Pt                 
                                            
                                            
                                            
                                            

Positions:
   0 Pt     1.403607    0.810373    6.000000    ( 0.0000,  0.0000,  0.0000)
   1 Pt     4.210821    0.810373    6.000000    ( 0.0000,  0.0000,  0.0000)
   2 Pt     7.018035    0.810373    6.000000    ( 0.0000,  0.0000,  0.0000)
   3 Pt     2.807214    3.241491    6.000000    ( 0.0000,  0.0000,  0.0000)
   4 Pt     5.614428    3.241491    6.000000    ( 0.0000,  0.0000,  0.0000)
   5 Pt     8.421642    3.241491    6.000000    ( 0.0000,  0.0000,  0.0000)
   6 Pt     4.210821    5.672610    6.000000    ( 0.0000,  0.0000,  0.0000)
   7 Pt     7.018035    5.672610    6.000000    ( 0.0000,  0.0000,  0.0000)
   8 Pt     9.825249    5.672610    6.000000    ( 0.0000,  0.0000,  0.0000)
   9 Pt    -0.000000    1.620746    8.292081    ( 0.0000,  0.0000,  0.0000)
  10 Pt     2.807214    1.620746    8.292081    ( 0.0000,  0.0000,  0.0000)
  11 Pt     5.614428    1.620746    8.292081    ( 0.0000,  0.0000,  0.0000)
  12 Pt     1.403607    4.051864    8.292081    ( 0.0000,  0.0000,  0.0000)
  13 Pt     4.210821    4.051864    8.292081    ( 0.0000,  0.0000,  0.0000)
  14 Pt     7.018035    4.051864    8.292081    ( 0.0000,  0.0000,  0.0000)
  15 Pt     2.807214    6.482983    8.292081    ( 0.0000,  0.0000,  0.0000)
  16 Pt     5.614428    6.482983    8.292081    ( 0.0000,  0.0000,  0.0000)
  17 Pt     8.421642    6.482983    8.292081    ( 0.0000,  0.0000,  0.0000)
  18 Pt     0.000000    0.000000   10.584161    ( 0.0000,  0.0000,  0.0000)
  19 Pt     2.807214    0.000000   10.584161    ( 0.0000,  0.0000,  0.0000)
  20 Pt     5.614428    0.000000   10.584161    ( 0.0000,  0.0000,  0.0000)
  21 Pt     1.403607    2.431119   10.584161    ( 0.0000,  0.0000,  0.0000)
  22 Pt     4.210821    2.431119   10.584161    ( 0.0000,  0.0000,  0.0000)
  23 Pt     7.018035    2.431119   10.584161    ( 0.0000,  0.0000,  0.0000)
  24 Pt     2.807214    4.862237   10.584161    ( 0.0000,  0.0000,  0.0000)
  25 Pt     5.614428    4.862237   10.584161    ( 0.0000,  0.0000,  0.0000)
  26 Pt     8.421642    4.862237   10.584161    ( 0.0000,  0.0000,  0.0000)
  27 O      2.489341    1.437222   11.310375    ( 0.0000,  0.0000,  0.0000)

Unit cell:
           periodic     x           y           z      points  spacing
  1. axis:    yes    8.421642    0.000000    0.000000    42     0.1737
  2. axis:    yes    4.210821    7.293356    0.000000    42     0.1737
  3. axis:    no     0.000000    0.000000   16.584161    84     0.1974

  Lengths:   8.421642   8.421642  16.584161
  Angles:   90.000000  90.000000  60.000000

Effective grid spacing dv^(1/3) = 0.1901

     iter     time        total  log10-change:
                         energy  eigst   dens
iter:   1 14:15:57  -169.531529  -1.29
iter:   2 14:16:05  -166.826701  -1.85  -1.87
iter:   3 14:16:13  -165.702793  -2.15  -1.85
iter:   4 14:16:20  -163.679007  -2.73  -1.94
iter:   5 14:16:28  -163.466721  -2.89  -2.39
iter:   6 14:16:36  -163.384800  -3.61  -2.51
iter:   7 14:16:44  -163.284167c -3.12  -2.59
iter:   8 14:16:52  -163.255781c -3.45  -2.81
iter:   9 14:17:00  -163.242894c -4.09  -2.83
iter:  10 14:17:08  -163.236897c -4.17  -3.01
iter:  11 14:17:15  -163.233150c -4.54  -3.09
iter:  12 14:17:23  -163.232207c -5.12  -3.24
iter:  13 14:17:31  -163.234091c -4.75  -3.37
iter:  14 14:17:39  -163.232391c -5.05  -3.35
iter:  15 14:17:47  -163.232282c -5.79  -3.70
iter:  16 14:17:55  -163.232205c -6.00  -3.79
iter:  17 14:18:03  -163.232150c -5.87  -3.89
iter:  18 14:18:10  -163.232152c -6.55  -4.16c
iter:  19 14:18:18  -163.232178c -6.71  -4.26c
iter:  20 14:18:26  -163.232178c -7.28  -4.35c
iter:  21 14:18:34  -163.232157c -7.03  -4.37c
iter:  22 14:18:42  -163.232136c -7.41c -4.63c

Converged after 22 iterations.

Dipole moment: (-1.079909, -0.623486, 0.177793) |e|*Ang

Energy contributions relative to reference atoms: (reference = -13512175.647022)

Kinetic:       -214.869972
Potential:     +158.831635
External:        +0.000000
XC:             -91.031029
Entropy (-ST):   -1.696241
Local:          -15.314649
--------------------------
Free energy:   -164.080256
Extrapolated:  -163.232136

Showing only first 2 kpts
 Kpt  Band  Eigenvalues  Occupancy
  0   217      1.42433    1.47320
  0   218      1.45057    1.36534
  0   219      1.46704    1.29193
  0   220      1.49584    1.15537

  1   217      1.32522    1.76567
  1   218      1.33365    1.74765
  1   219      1.33902    1.73557
  1   220      1.39358    1.58364


Fermi level: 1.52717

No gap

Forces in eV/Ang:
  0 Pt    0.01385    0.00799   -0.09748
  1 Pt    0.03795   -0.03111   -0.10924
  2 Pt   -0.02943   -0.01506   -0.12447
  3 Pt   -0.00796    0.04842   -0.10924
  4 Pt   -0.02164   -0.01249   -0.04403
  5 Pt    0.02336    0.01268   -0.05484
  6 Pt   -0.02775   -0.01796   -0.12447
  7 Pt    0.02266    0.01389   -0.05484
  8 Pt    0.00602    0.00347   -0.23289
  9 Pt   -0.09698   -0.09898   -0.16257
 10 Pt    0.06414    0.03703   -0.82280
 11 Pt    0.06679    0.00445   -0.08497
 12 Pt   -0.06054    0.07721    0.07440
 13 Pt    0.03725    0.05561   -0.08497
 14 Pt   -0.01517   -0.00876   -0.00947
 15 Pt   -0.00932   -0.00538   -0.15535
 16 Pt   -0.13421   -0.03450   -0.16257
 17 Pt    0.03660   -0.09104    0.07440
 18 Pt   -0.72471   -0.41841   -0.11207
 19 Pt    2.54305  -11.74021   -4.71533
 20 Pt    0.37153   -0.14833   -0.04758
 21 Pt   -8.89580    8.07245   -4.71533
 22 Pt    1.81652    1.04877    0.02055
 23 Pt   -0.12314    0.14855   -0.00888
 24 Pt    0.05730    0.39592   -0.04758
 25 Pt    0.06708   -0.18092   -0.00888
 26 Pt   -0.07865   -0.04541   -0.03195
 27 O     5.03801    2.90870   11.83403

System changes: positions 

Initializing position-dependent things.

Density initialized from wave functions
                                            
                                            
                                            
                                            
                                            
                                            
              O  Pt     Pt     Pt           
                                            
            Pt    PPt    PPt   Pt           
       Pt    PPt    PPt    Pt               
                                            
        Pt     Pt    PPt    Pt    Pt        
                                            
                Pt     Pt     Pt            
           Pt     Pt     Pt                 
                                            
                                            
                                            
                                            

Positions:
   0 Pt     1.403607    0.810373    6.000000    ( 0.0000,  0.0000,  0.0000)
   1 Pt     4.210821    0.810373    6.000000    ( 0.0000,  0.0000,  0.0000)
   2 Pt     7.018035    0.810373    6.000000    ( 0.0000,  0.0000,  0.0000)
   3 Pt     2.807214    3.241491    6.000000    ( 0.0000,  0.0000,  0.0000)
   4 Pt     5.614428    3.241491    6.000000    ( 0.0000,  0.0000,  0.0000)
   5 Pt     8.421642    3.241491    6.000000    ( 0.0000,  0.0000,  0.0000)
   6 Pt     4.210821    5.672610    6.000000    ( 0.0000,  0.0000,  0.0000)
   7 Pt     7.018035    5.672610    6.000000    ( 0.0000,  0.0000,  0.0000)
   8 Pt     9.825249    5.672610    6.000000    ( 0.0000,  0.0000,  0.0000)
   9 Pt    -0.000000    1.620746    8.292081    ( 0.0000,  0.0000,  0.0000)
  10 Pt     2.807214    1.620746    8.292081    ( 0.0000,  0.0000,  0.0000)
  11 Pt     5.614428    1.620746    8.292081    ( 0.0000,  0.0000,  0.0000)
  12 Pt     1.403607    4.051864    8.292081    ( 0.0000,  0.0000,  0.0000)
  13 Pt     4.210821    4.051864    8.292081    ( 0.0000,  0.0000,  0.0000)
  14 Pt     7.018035    4.051864    8.292081    ( 0.0000,  0.0000,  0.0000)
  15 Pt     2.807214    6.482983    8.292081    ( 0.0000,  0.0000,  0.0000)
  16 Pt     5.614428    6.482983    8.292081    ( 0.0000,  0.0000,  0.0000)
  17 Pt     8.421642    6.482983    8.292081    ( 0.0000,  0.0000,  0.0000)
  18 Pt     0.000000    0.000000   10.584161    ( 0.0000,  0.0000,  0.0000)
  19 Pt     2.807214    0.000000   10.584161    ( 0.0000,  0.0000,  0.0000)
  20 Pt     5.614428    0.000000   10.584161    ( 0.0000,  0.0000,  0.0000)
  21 Pt     1.403607    2.431119   10.584161    ( 0.0000,  0.0000,  0.0000)
  22 Pt     4.210821    2.431119   10.584161    ( 0.0000,  0.0000,  0.0000)
  23 Pt     7.018035    2.431119   10.584161    ( 0.0000,  0.0000,  0.0000)
  24 Pt     2.807214    4.862237   10.584161    ( 0.0000,  0.0000,  0.0000)
  25 Pt     5.614428    4.862237   10.584161    ( 0.0000,  0.0000,  0.0000)
  26 Pt     8.421642    4.862237   10.584161    ( 0.0000,  0.0000,  0.0000)
  27 O      2.463438    1.422267   11.922211    ( 0.0000,  0.0000,  0.0000)

Unit cell:
           periodic     x           y           z      points  spacing
  1. axis:    yes    8.421642    0.000000    0.000000    42     0.1737
  2. axis:    yes    4.210821    7.293356    0.000000    42     0.1737
  3. axis:    no     0.000000    0.000000   16.584161    84     0.1974

  Lengths:   8.421642   8.421642  16.584161
  Angles:   90.000000  90.000000  60.000000

Effective grid spacing dv^(1/3) = 0.1901

     iter     time        total  log10-change:
                         energy  eigst   dens
iter:   1 14:18:52  -191.486066  -0.57
iter:   2 14:19:00  -186.772508  -1.26  -1.56
iter:   3 14:19:07  -170.739424  -1.84  -1.48
iter:   4 14:19:15  -168.337404  -1.89  -1.99
iter:   5 14:19:23  -167.869228  -3.25  -2.10
iter:   6 14:19:31  -167.190726  -2.66  -2.27
iter:   7 14:19:39  -166.810874  -2.40  -2.45
iter:   8 14:19:47  -166.751441  -3.24  -2.57
iter:   9 14:19:54  -166.738285c -3.90  -2.70
iter:  10 14:20:02  -166.750362c -4.16  -2.76
iter:  11 14:20:10  -166.715793c -3.81  -2.73
iter:  12 14:20:18  -166.716184c -4.43  -3.06
iter:  13 14:20:26  -166.714320c -4.87  -3.09
iter:  14 14:20:33  -166.713806c -5.06  -3.25
iter:  15 14:20:41  -166.713706c -4.96  -3.35
iter:  16 14:20:49  -166.713700c -5.39  -3.58
iter:  17 14:20:57  -166.713877c -5.73  -3.62
iter:  18 14:21:05  -166.713296c -6.10  -3.74
iter:  19 14:21:13  -166.713011c -6.13  -3.85
iter:  20 14:21:20  -166.712930c -6.41  -4.04c
iter:  21 14:21:28  -166.712996c -7.17  -4.25c
iter:  22 14:21:36  -166.713018c -7.45c -4.42c

Converged after 22 iterations.

Dipole moment: (-0.240099, -0.138621, -0.080298) |e|*Ang

Energy contributions relative to reference atoms: (reference = -13512175.647022)

Kinetic:       -298.158296
Potential:     +228.186807
External:        +0.000000
XC:             -81.153554
Entropy (-ST):   -1.742845
Local:          -14.716553
--------------------------
Free energy:   -167.584440
Extrapolated:  -166.713018

Showing only first 2 kpts
 Kpt  Band  Eigenvalues  Occupancy
  0   217      1.29528    1.47783
  0   218      1.32345    1.36212
  0   219      1.35605    1.21304
  0   220      1.36512    1.16932

  1   217      1.16045    1.83192
  1   218      1.20720    1.74454
  1   219      1.22836    1.69357
  1   220      1.26240    1.59448


Fermi level: 1.39932

No gap

Forces in eV/Ang:
  0 Pt    0.03060    0.01767   -0.04868
  1 Pt   -0.00771    0.00970   -0.05078
  2 Pt   -0.03916   -0.02073   -0.09667
  3 Pt    0.00455   -0.01153   -0.05078
  4 Pt    0.00999    0.00577   -0.06002
  5 Pt    0.00776    0.01399   -0.03043
  6 Pt   -0.03754   -0.02355   -0.09667
  7 Pt    0.01600   -0.00028   -0.03043
  8 Pt    0.02459    0.01420   -0.21282
  9 Pt   -0.07125    0.03143   -0.02983
 10 Pt   -0.01636   -0.00944   -0.53150
 11 Pt    0.05264    0.05986    0.01553
 12 Pt   -0.11743   -0.02211    0.21672
 13 Pt    0.07816    0.01566    0.01553
 14 Pt   -0.01700   -0.00982   -0.04548
 15 Pt    0.00793    0.00458   -0.13213
 16 Pt   -0.00841   -0.07742   -0.02983
 17 Pt   -0.07786   -0.09064    0.21672
 18 Pt   -0.49697   -0.28693   -0.11821
 19 Pt    0.32868   -0.64068    0.22514
 20 Pt    0.26083   -0.11252   -0.03074
 21 Pt   -0.39050    0.60499    0.22514
 22 Pt    0.34291    0.19798    0.22714
 23 Pt   -0.12324    0.03182    0.03053
 24 Pt    0.03297    0.28214   -0.03074
 25 Pt   -0.03406   -0.12264    0.03053
 26 Pt   -0.01747   -0.01009    0.00321
 27 O     0.27241    0.15728    0.43757

System changes: positions 

Initializing position-dependent things.

Density initialized from wave functions
                                            
                                            
                                            
                                            
                                            
                                            
               O Pt     Pt     Pt           
            Pt     Pt     Pt                
                  Pt     Pt    Pt           
       Pt    PPt    PPt    Pt               
                                            
        Pt     Pt    PPt    Pt    Pt        
                                            
                Pt     Pt     Pt            
           Pt     Pt     Pt                 
                                            
                                            
                                            
                                            

Positions:
   0 Pt     1.403607    0.810373    6.000000    ( 0.0000,  0.0000,  0.0000)
   1 Pt     4.210821    0.810373    6.000000    ( 0.0000,  0.0000,  0.0000)
   2 Pt     7.018035    0.810373    6.000000    ( 0.0000,  0.0000,  0.0000)
   3 Pt     2.807214    3.241491    6.000000    ( 0.0000,  0.0000,  0.0000)
   4 Pt     5.614428    3.241491    6.000000    ( 0.0000,  0.0000,  0.0000)
   5 Pt     8.421642    3.241491    6.000000    ( 0.0000,  0.0000,  0.0000)
   6 Pt     4.210821    5.672610    6.000000    ( 0.0000,  0.0000,  0.0000)
   7 Pt     7.018035    5.672610    6.000000    ( 0.0000,  0.0000,  0.0000)
   8 Pt     9.825249    5.672610    6.000000    ( 0.0000,  0.0000,  0.0000)
   9 Pt    -0.000000    1.620746    8.292081    ( 0.0000,  0.0000,  0.0000)
  10 Pt     2.807214    1.620746    8.292081    ( 0.0000,  0.0000,  0.0000)
  11 Pt     5.614428    1.620746    8.292081    ( 0.0000,  0.0000,  0.0000)
  12 Pt     1.403607    4.051864    8.292081    ( 0.0000,  0.0000,  0.0000)
  13 Pt     4.210821    4.051864    8.292081    ( 0.0000,  0.0000,  0.0000)
  14 Pt     7.018035    4.051864    8.292081    ( 0.0000,  0.0000,  0.0000)
  15 Pt     2.807214    6.482983    8.292081    ( 0.0000,  0.0000,  0.0000)
  16 Pt     5.614428    6.482983    8.292081    ( 0.0000,  0.0000,  0.0000)
  17 Pt     8.421642    6.482983    8.292081    ( 0.0000,  0.0000,  0.0000)
  18 Pt     0.000000    0.000000   10.584161    ( 0.0000,  0.0000,  0.0000)
  19 Pt     2.807214    0.000000   10.584161    ( 0.0000,  0.0000,  0.0000)
  20 Pt     5.614428    0.000000   10.584161    ( 0.0000,  0.0000,  0.0000)
  21 Pt     1.403607    2.431119   10.584161    ( 0.0000,  0.0000,  0.0000)
  22 Pt     4.210821    2.431119   10.584161    ( 0.0000,  0.0000,  0.0000)
  23 Pt     7.018035    2.431119   10.584161    ( 0.0000,  0.0000,  0.0000)
  24 Pt     2.807214    4.862237   10.584161    ( 0.0000,  0.0000,  0.0000)
  25 Pt     5.614428    4.862237   10.584161    ( 0.0000,  0.0000,  0.0000)
  26 Pt     8.421642    4.862237   10.584161    ( 0.0000,  0.0000,  0.0000)
  27 O      2.693989    1.555375   11.878196    ( 0.0000,  0.0000,  0.0000)

Unit cell:
           periodic     x           y           z      points  spacing
  1. axis:    yes    8.421642    0.000000    0.000000    42     0.1737
  2. axis:    yes    4.210821    7.293356    0.000000    42     0.1737
  3. axis:    no     0.000000    0.000000   16.584161    84     0.1974

  Lengths:   8.421642   8.421642  16.584161
  Angles:   90.000000  90.000000  60.000000

Effective grid spacing dv^(1/3) = 0.1901

     iter     time        total  log10-change:
                         energy  eigst   dens
iter:   1 14:21:46  -167.399254  -2.09
iter:   2 14:21:54  -166.983150  -3.17  -2.44
iter:   3 14:22:02  -166.967386  -3.52  -2.61
iter:   4 14:22:10  -166.890263c -3.92  -2.54
iter:   5 14:22:18  -166.844955c -3.74  -2.72
iter:   6 14:22:25  -166.820826c -3.93  -2.96
iter:   7 14:22:33  -166.809264c -4.02  -3.01
iter:   8 14:22:41  -166.808003c -5.00  -3.33
iter:   9 14:22:49  -166.807836c -5.35  -3.40
iter:  10 14:22:57  -166.807114c -5.31  -3.48
iter:  11 14:23:05  -166.807197c -5.82  -3.67
iter:  12 14:23:13  -166.806504c -5.80  -3.75
iter:  13 14:23:20  -166.806637c -6.32  -3.75
iter:  14 14:23:28  -166.806669c -6.58  -4.03c
iter:  15 14:23:36  -166.806573c -6.63  -4.08c
iter:  16 14:23:44  -166.806410c -6.92  -4.24c
iter:  17 14:23:52  -166.806442c -7.80c -4.47c

Converged after 17 iterations.

Dipole moment: (-0.291885, -0.168520, -0.060469) |e|*Ang

Energy contributions relative to reference atoms: (reference = -13512175.647022)

Kinetic:       -297.902846
Potential:     +227.872413
External:        +0.000000
XC:             -81.197441
Entropy (-ST):   -1.742783
Local:          -14.707176
--------------------------
Free energy:   -167.677833
Extrapolated:  -166.806442

Showing only first 2 kpts
 Kpt  Band  Eigenvalues  Occupancy
  0   217      1.30408    1.47534
  0   218      1.33059    1.36651
  0   219      1.36843    1.19273
  0   220      1.36926    1.18872

  1   217      1.16990    1.82990
  1   218      1.21621    1.74261
  1   219      1.24239    1.67799
  1   220      1.27166    1.59089


Fermi level: 1.40747

No gap

Forces in eV/Ang:
  0 Pt    0.02489    0.01437   -0.05499
  1 Pt   -0.01630    0.00022   -0.05017
  2 Pt   -0.01959   -0.03355   -0.12408
  3 Pt   -0.00796   -0.01423   -0.05017
  4 Pt    0.00970    0.00560   -0.03533
  5 Pt    0.00477    0.00329   -0.03410
  6 Pt   -0.03885   -0.00019   -0.12408
  7 Pt    0.00524    0.00248   -0.03410
  8 Pt    0.02661    0.01536   -0.17163
  9 Pt   -0.08242    0.06589    0.02928
 10 Pt   -0.01035   -0.00597   -0.58958
 11 Pt    0.07921    0.08240    0.03407
 12 Pt   -0.11818    0.01669    0.10573
 13 Pt    0.11097    0.02740    0.03407
 14 Pt   -0.00053   -0.00030   -0.04961
 15 Pt    0.00116    0.00067   -0.13620
 16 Pt    0.01585   -0.10432    0.02928
 17 Pt   -0.04463   -0.11069    0.10573
 18 Pt   -0.40005   -0.23097   -0.09677
 19 Pt    0.12101   -0.61755    0.31119
 20 Pt    0.30415   -0.15936   -0.03771
 21 Pt   -0.47431    0.41357    0.31119
 22 Pt    0.26753    0.15446    0.48319
 23 Pt   -0.04109    0.04121    0.02424
 24 Pt    0.01406    0.34308   -0.03771
 25 Pt    0.01515   -0.05619    0.02424
 26 Pt   -0.04538   -0.02620    0.01053
 27 O     0.31850    0.18389    0.10102

System changes: positions 

Initializing position-dependent things.

Density initialized from wave functions
                                            
                                            
                                            
                                            
                                            
                                            
               O Pt     Pt     Pt           
            Pt     Pt     Pt                
                  Pt     Pt    Pt           
       Pt    PPt    PPt    Pt               
                                            
        Pt     Pt    PPt    Pt    Pt        
                                            
                Pt     Pt     Pt            
           Pt     Pt     Pt                 
                                            
                                            
                                            
                                            

Positions:
   0 Pt     1.403607    0.810373    6.000000    ( 0.0000,  0.0000,  0.0000)
   1 Pt     4.210821    0.810373    6.000000    ( 0.0000,  0.0000,  0.0000)
   2 Pt     7.018035    0.810373    6.000000    ( 0.0000,  0.0000,  0.0000)
   3 Pt     2.807214    3.241491    6.000000    ( 0.0000,  0.0000,  0.0000)
   4 Pt     5.614428    3.241491    6.000000    ( 0.0000,  0.0000,  0.0000)
   5 Pt     8.421642    3.241491    6.000000    ( 0.0000,  0.0000,  0.0000)
   6 Pt     4.210821    5.672610    6.000000    ( 0.0000,  0.0000,  0.0000)
   7 Pt     7.018035    5.672610    6.000000    ( 0.0000,  0.0000,  0.0000)
   8 Pt     9.825249    5.672610    6.000000    ( 0.0000,  0.0000,  0.0000)
   9 Pt    -0.000000    1.620746    8.292081    ( 0.0000,  0.0000,  0.0000)
  10 Pt     2.807214    1.620746    8.292081    ( 0.0000,  0.0000,  0.0000)
  11 Pt     5.614428    1.620746    8.292081    ( 0.0000,  0.0000,  0.0000)
  12 Pt     1.403607    4.051864    8.292081    ( 0.0000,  0.0000,  0.0000)
  13 Pt     4.210821    4.051864    8.292081    ( 0.0000,  0.0000,  0.0000)
  14 Pt     7.018035    4.051864    8.292081    ( 0.0000,  0.0000,  0.0000)
  15 Pt     2.807214    6.482983    8.292081    ( 0.0000,  0.0000,  0.0000)
  16 Pt     5.614428    6.482983    8.292081    ( 0.0000,  0.0000,  0.0000)
  17 Pt     8.421642    6.482983    8.292081    ( 0.0000,  0.0000,  0.0000)
  18 Pt     0.000000    0.000000   10.584161    ( 0.0000,  0.0000,  0.0000)
  19 Pt     2.807214    0.000000   10.584161    ( 0.0000,  0.0000,  0.0000)
  20 Pt     5.614428    0.000000   10.584161    ( 0.0000,  0.0000,  0.0000)
  21 Pt     1.403607    2.431119   10.584161    ( 0.0000,  0.0000,  0.0000)
  22 Pt     4.210821    2.431119   10.584161    ( 0.0000,  0.0000,  0.0000)
  23 Pt     7.018035    2.431119   10.584161    ( 0.0000,  0.0000,  0.0000)
  24 Pt     2.807214    4.862237   10.584161    ( 0.0000,  0.0000,  0.0000)
  25 Pt     5.614428    4.862237   10.584161    ( 0.0000,  0.0000,  0.0000)
  26 Pt     8.421642    4.862237   10.584161    ( 0.0000,  0.0000,  0.0000)
  27 O      2.800823    1.617056   11.872831    ( 0.0000,  0.0000,  0.0000)

Unit cell:
           periodic     x           y           z      points  spacing
  1. axis:    yes    8.421642    0.000000    0.000000    42     0.1737
  2. axis:    yes    4.210821    7.293356    0.000000    42     0.1737
  3. axis:    no     0.000000    0.000000   16.584161    84     0.1974

  Lengths:   8.421642   8.421642  16.584161
  Angles:   90.000000  90.000000  60.000000

Effective grid spacing dv^(1/3) = 0.1901

     iter     time        total  log10-change:
                         energy  eigst   dens
iter:   1 14:24:02  -167.011722  -2.70
iter:   2 14:24:10  -166.883159  -3.73  -2.72
iter:   3 14:24:18  -166.860731c -4.05  -2.93
iter:   4 14:24:25  -166.866907c -4.29  -2.93
iter:   5 14:24:33  -166.842309c -4.38  -2.87
iter:   6 14:24:41  -166.833229c -4.30  -3.23
iter:   7 14:24:49  -166.831105c -4.73  -3.39
iter:   8 14:24:57  -166.831012c -5.74  -3.68
iter:   9 14:25:05  -166.831023c -5.79  -3.73
iter:  10 14:25:12  -166.830855c -6.16  -3.95
iter:  11 14:25:20  -166.831145c -6.44  -4.04c
iter:  12 14:25:28  -166.830811c -6.83  -4.02c
iter:  13 14:25:36  -166.830844c -6.86  -4.25c
iter:  14 14:25:44  -166.830842c -7.19  -4.37c
iter:  15 14:25:52  -166.830782c -7.18  -4.45c
iter:  16 14:26:00  -166.830751c -7.84c -4.73c

Converged after 16 iterations.

Dipole moment: (-0.298326, -0.172239, -0.058657) |e|*Ang

Energy contributions relative to reference atoms: (reference = -13512175.647022)

Kinetic:       -298.066451
Potential:     +227.989004
External:        +0.000000
XC:             -81.174295
Entropy (-ST):   -1.743706
Local:          -14.707157
--------------------------
Free energy:   -167.702604
Extrapolated:  -166.830751

Showing only first 2 kpts
 Kpt  Band  Eigenvalues  Occupancy
  0   217      1.31016    1.45376
  0   218      1.33263    1.36015
  0   219      1.36720    1.20140
  0   220      1.37268    1.17501

  1   217      1.17348    1.82517
  1   218      1.21693    1.74229
  1   219      1.24401    1.67516
  1   220      1.27207    1.59142


Fermi level: 1.40804

No gap

Forces in eV/Ang:
  0 Pt    0.02011    0.01161   -0.05696
  1 Pt   -0.01913   -0.00383   -0.04911
  2 Pt   -0.00452   -0.03740   -0.13412
  3 Pt   -0.01288   -0.01465   -0.04911
  4 Pt    0.00970    0.00560   -0.02267
  5 Pt    0.00249   -0.00121   -0.03701
  6 Pt   -0.03465    0.01478   -0.13412
  7 Pt    0.00020    0.00276   -0.03701
  8 Pt    0.02631    0.01519   -0.15106
  9 Pt   -0.07941    0.08264    0.05638
 10 Pt   -0.00225   -0.00130   -0.59555
 11 Pt    0.08155    0.08415    0.05206
 12 Pt   -0.11035    0.03159    0.05914
 13 Pt    0.11366    0.02855    0.05206
 14 Pt    0.00616    0.00356   -0.05050
 15 Pt   -0.00124   -0.00072   -0.13469
 16 Pt    0.03187   -0.11009    0.05638
 17 Pt   -0.02781   -0.11136    0.05914
 18 Pt   -0.33891   -0.19567   -0.07719
 19 Pt    0.00936   -0.48189    0.40023
 20 Pt    0.32321   -0.18179   -0.05547
 21 Pt   -0.41265    0.24905    0.40023
 22 Pt    0.42759    0.24687    0.39706
 23 Pt   -0.00608    0.04102    0.01960
 24 Pt    0.00417    0.37080   -0.05547
 25 Pt    0.03248   -0.02577    0.01960
 26 Pt   -0.04727   -0.02729    0.00659
 27 O     0.02384    0.01377    0.01262

System changes: positions 

Initializing position-dependent things.

Density initialized from wave functions
                                            
                                            
                                            
                                            
                                            
                                            
               O Pt     Pt     Pt           
            Pt     Pt     Pt                
                  Pt     Pt    Pt           
       Pt    PPt    PPt    Pt               
                                            
        Pt     Pt    PPt    Pt    Pt        
                                            
                Pt     Pt     Pt            
           Pt     Pt     Pt                 
                                            
                                            
                                            
                                            

Positions:
   0 Pt     1.403607    0.810373    6.000000    ( 0.0000,  0.0000,  0.0000)
   1 Pt     4.210821    0.810373    6.000000    ( 0.0000,  0.0000,  0.0000)
   2 Pt     7.018035    0.810373    6.000000    ( 0.0000,  0.0000,  0.0000)
   3 Pt     2.807214    3.241491    6.000000    ( 0.0000,  0.0000,  0.0000)
   4 Pt     5.614428    3.241491    6.000000    ( 0.0000,  0.0000,  0.0000)
   5 Pt     8.421642    3.241491    6.000000    ( 0.0000,  0.0000,  0.0000)
   6 Pt     4.210821    5.672610    6.000000    ( 0.0000,  0.0000,  0.0000)
   7 Pt     7.018035    5.672610    6.000000    ( 0.0000,  0.0000,  0.0000)
   8 Pt     9.825249    5.672610    6.000000    ( 0.0000,  0.0000,  0.0000)
   9 Pt    -0.000000    1.620746    8.292081    ( 0.0000,  0.0000,  0.0000)
  10 Pt     2.807214    1.620746    8.292081    ( 0.0000,  0.0000,  0.0000)
  11 Pt     5.614428    1.620746    8.292081    ( 0.0000,  0.0000,  0.0000)
  12 Pt     1.403607    4.051864    8.292081    ( 0.0000,  0.0000,  0.0000)
  13 Pt     4.210821    4.051864    8.292081    ( 0.0000,  0.0000,  0.0000)
  14 Pt     7.018035    4.051864    8.292081    ( 0.0000,  0.0000,  0.0000)
  15 Pt     2.807214    6.482983    8.292081    ( 0.0000,  0.0000,  0.0000)
  16 Pt     5.614428    6.482983    8.292081    ( 0.0000,  0.0000,  0.0000)
  17 Pt     8.421642    6.482983    8.292081    ( 0.0000,  0.0000,  0.0000)
  18 Pt     0.000000    0.000000   10.584161    ( 0.0000,  0.0000,  0.0000)
  19 Pt     2.807214    0.000000   10.584161    ( 0.0000,  0.0000,  0.0000)
  20 Pt     5.614428    0.000000   10.584161    ( 0.0000,  0.0000,  0.0000)
  21 Pt     1.403607    2.431119   10.584161    ( 0.0000,  0.0000,  0.0000)
  22 Pt     4.210821    2.431119   10.584161    ( 0.0000,  0.0000,  0.0000)
  23 Pt     7.018035    2.431119   10.584161    ( 0.0000,  0.0000,  0.0000)
  24 Pt     2.807214    4.862237   10.584161    ( 0.0000,  0.0000,  0.0000)
  25 Pt     5.614428    4.862237   10.584161    ( 0.0000,  0.0000,  0.0000)
  26 Pt     8.421642    4.862237   10.584161    ( 0.0000,  0.0000,  0.0000)
  27 O      2.804296    1.619061   11.873504    ( 0.0000,  0.0000,  0.0000)

Unit cell:
           periodic     x           y           z      points  spacing
  1. axis:    yes    8.421642    0.000000    0.000000    42     0.1737
  2. axis:    yes    4.210821    7.293356    0.000000    42     0.1737
  3. axis:    no     0.000000    0.000000   16.584161    84     0.1974

  Lengths:   8.421642   8.421642  16.584161
  Angles:   90.000000  90.000000  60.000000

Effective grid spacing dv^(1/3) = 0.1901

     iter     time        total  log10-change:
                         energy  eigst   dens
iter:   1 14:26:10  -166.832356  -5.48
iter:   2 14:26:18  -166.832041  -5.34  -3.61
iter:   3 14:26:26  -166.830743c -5.96  -3.41
iter:   4 14:26:33  -166.830796c -6.92  -4.45c
iter:   5 14:26:41  -166.830799c -7.27  -4.62c
iter:   6 14:26:49  -166.830767c -7.28  -4.72c
iter:   7 14:26:57  -166.830755c -7.77c -4.90c

Converged after 7 iterations.

Dipole moment: (-0.296826, -0.171373, -0.059171) |e|*Ang

Energy contributions relative to reference atoms: (reference = -13512175.647022)

Kinetic:       -298.108158
Potential:     +228.025740
External:        +0.000000
XC:             -81.167040
Entropy (-ST):   -1.743772
Local:          -14.709410
--------------------------
Free energy:   -167.702641
Extrapolated:  -166.830755

Showing only first 2 kpts
 Kpt  Band  Eigenvalues  Occupancy
  0   217      1.31025    1.45282
  0   218      1.33254    1.35989
  0   219      1.36701    1.20163
  0   220      1.37264    1.17445

  1   217      1.17343    1.82502
  1   218      1.21677    1.74233
  1   219      1.24384    1.67521
  1   220      1.27191    1.59147


Fermi level: 1.40790

No gap

Forces in eV/Ang:
  0 Pt    0.01968    0.01136   -0.05669
  1 Pt   -0.01931   -0.00367   -0.04846
  2 Pt   -0.00383   -0.03743   -0.13411
  3 Pt   -0.01283   -0.01489   -0.04846
  4 Pt    0.00961    0.00555   -0.02196
  5 Pt    0.00219   -0.00133   -0.03692
  6 Pt   -0.03433    0.01540   -0.13411
  7 Pt   -0.00006    0.00256   -0.03692
  8 Pt    0.02608    0.01506   -0.14977
  9 Pt   -0.08047    0.08300    0.05532
 10 Pt    0.00067    0.00039   -0.59389
 11 Pt    0.08088    0.08322    0.05585
 12 Pt   -0.11037    0.03162    0.05887
 13 Pt    0.11251    0.02843    0.05585
 14 Pt    0.00638    0.00368   -0.04917
 15 Pt   -0.00067   -0.00039   -0.13328
 16 Pt    0.03164   -0.11119    0.05532
 17 Pt   -0.02780   -0.11140    0.05887
 18 Pt   -0.32577   -0.18808   -0.06318
 19 Pt   -0.00885   -0.46933    0.41383
 20 Pt    0.32917   -0.18450   -0.06186
 21 Pt   -0.41088    0.22700    0.41383
 22 Pt    0.43279    0.24987    0.37770
 23 Pt   -0.00795    0.04125    0.01950
 24 Pt    0.00480    0.37732   -0.06186
 25 Pt    0.03175   -0.02751    0.01950
 26 Pt   -0.04628   -0.02672    0.00713
 27 O    -0.00287   -0.00166    0.00326

Timing:                                      incl.     excl.
-------------------------------------------------------------------
Density initialized from wave functions:     4.036     3.851   0.3% |
 Symmetrize density:                         0.184     0.184   0.0% |
Forces:                                     13.403    13.403   1.0% |
Hamiltonian:                                 2.977     0.032   0.0% |
 Atomic:                                     1.460     0.742   0.1% |
  XC Correction:                             0.718     0.718   0.1% |
 Calculate atomic Hamiltonians:              0.729     0.729   0.1% |
 Communicate:                                0.039     0.039   0.0% |
 Initialize Hamiltonian:                     0.000     0.000   0.0% |
 Poisson:                                    0.009     0.009   0.0% |
 XC 3D grid:                                 0.707     0.707   0.1% |
LCAO initialization:                        12.706     0.192   0.0% |
 LCAO eigensolver:                           0.893     0.001   0.0% |
  Calculate projections:                     0.006     0.006   0.0% |
  DenseAtomicCorrection:                     0.007     0.007   0.0% |
  Distribute overlap matrix:                 0.110     0.110   0.0% |
  Orbital Layouts:                           0.222     0.222   0.0% |
  Potential matrix:                          0.519     0.519   0.0% |
  Sum over cells:                            0.028     0.028   0.0% |
 LCAO to grid:                              11.303    11.303   0.8% |
 Set positions (LCAO WFS):                   0.317     0.117   0.0% |
  Basic WFS set positions:                   0.002     0.002   0.0% |
  Basis functions set positions:             0.000     0.000   0.0% |
  P tci:                                     0.125     0.125   0.0% |
  ST tci:                                    0.043     0.043   0.0% |
  mktci:                                     0.030     0.030   0.0% |
PWDescriptor:                                0.032     0.032   0.0% |
Redistribute:                                0.020     0.020   0.0% |
SCF-cycle:                                1316.751     5.601   0.4% |
 Davidson:                                1187.577   180.274  13.3% |----|
  Apply H:                                 103.122   100.127   7.4% |--|
   HMM T:                                    2.995     2.995   0.2% |
  Subspace diag:                           181.630     0.074   0.0% |
   calc_h_matrix:                          125.424    23.225   1.7% ||
    Apply H:                               102.199    99.230   7.3% |--|
     HMM T:                                  2.969     2.969   0.2% |
   diagonalize:                             16.589    16.589   1.2% |
   rotate_psi:                              39.543    39.543   2.9% ||
  calc. matrices:                          358.879   154.420  11.4% |----|
   Apply H:                                204.459   198.549  14.6% |-----|
    HMM T:                                   5.910     5.910   0.4% |
  diagonalize:                             284.197   284.197  20.9% |-------|
  rotate_psi:                               79.475    79.475   5.8% |-|
 Density:                                   71.411     0.004   0.0% |
  Atomic density matrices:                   0.594     0.594   0.0% |
  Mix:                                      15.906    15.906   1.2% |
  Multipole moments:                         0.033     0.033   0.0% |
  Pseudo density:                           54.873    51.653   3.8% |-|
   Symmetrize density:                       3.220     3.220   0.2% |
 Hamiltonian:                               47.531     0.517   0.0% |
  Atomic:                                   23.067    11.682   0.9% |
   XC Correction:                           11.386    11.386   0.8% |
  Calculate atomic Hamiltonians:            11.527    11.527   0.8% |
  Communicate:                               1.033     1.033   0.1% |
  Poisson:                                   0.147     0.147   0.0% |
  XC 3D grid:                               11.240    11.240   0.8% |
 Orthonormalize:                             4.631     0.005   0.0% |
  calc_s_matrix:                             0.693     0.693   0.1% |
  inverse-cholesky:                          0.383     0.383   0.0% |
  projections:                               2.346     2.346   0.2% |
  rotate_psi_s:                              1.203     1.203   0.1% |
Set symmetry:                                0.001     0.001   0.0% |
Other:                                       8.736     8.736   0.6% |
-------------------------------------------------------------------
Total:                                              1358.662 100.0%

Memory usage: 926.60 MiB
Date: Thu Mar  2 14:27:02 2023
