
  ___ ___ ___ _ _ _  
 |   |   |_  | | | | 
 | | | | | . | | | | 
 |__ |  _|___|_____|  22.8.0
 |___|_|             

User:   gotols@vera07-3
Date:   Thu Mar  2 12:12:20 2023
Arch:   x86_64
Pid:    1667366
CWD:    /cephyr/users/gotols/Vera/TIF320-Computational-materials-and-molecular-physics-Assignments
Python: 3.10.4
gpaw:   /apps/Arch/software/GPAW/22.8.0-foss-2022a/lib/python3.10/site-packages/gpaw
_gpaw:  /apps/Arch/software/GPAW/22.8.0-foss-2022a/lib/python3.10/site-packages/
        _gpaw.cpython-310-x86_64-linux-gnu.so
ase:    /apps/Arch/software/ASE/3.22.1-foss-2022a/lib/python3.10/site-packages/ase (version 3.22.1)
numpy:  /apps/Arch/software/SciPy-bundle/2022.05-foss-2022a/lib/python3.10/site-packages/numpy (version 1.22.3)
scipy:  /apps/Arch/software/SciPy-bundle/2022.05-foss-2022a/lib/python3.10/site-packages/scipy (version 1.8.1)
libxc:  5.2.3
units:  Angstrom and eV
cores: 16
OpenMP: False
OMP_NUM_THREADS: 1

Input parameters:
  kpts: [4 4 1]
  mode: {ecut: 450.00000000000006,
         name: pw}
  xc: PBE

System changes: positions, numbers, cell, pbc, initial_charges, initial_magmoms 

Initialize ...

species:
  Pt:
    name: Platinum
    id: 5ed695806aff0c961dba1a84acd7f4b2
    Z: 78.0
    valence: 16
    core: 62
    charge: 0.0
    file: /apps/Common/software/GPAW-setups/0.9.20000/Pt.PBE.gz
    compensation charges: {type: gauss,
                           rc: 0.41,
                           lmax: 2}
    cutoffs: {filter: 2.26,
              core: 2.26}
    valence states:
      #              energy  rcut
      - 6s(1.00)    -5.628   1.307
      - 5p(6.00)   -56.051   1.371
      - 6p(0.00)    -0.845   1.371
      - 5d(9.00)    -6.153   1.307
      -  s          21.583   1.307
      -  d          21.058   1.307
  
    # Using partial waves for Pt as LCAO basis

  O:
    name: Oxygen
    id: 32ecd46bf208036f09c70b0ec9a88b78
    Z: 8.0
    valence: 6
    core: 2
    charge: 0.0
    file: /apps/Common/software/GPAW-setups/0.9.20000/O.PBE.gz
    compensation charges: {type: gauss,
                           rc: 0.21,
                           lmax: 2}
    cutoffs: {filter: 1.17,
              core: 0.83}
    valence states:
      #              energy  rcut
      - 2s(2.00)   -23.961   0.688
      - 2p(4.00)    -9.029   0.598
      -  s           3.251   0.688
      -  p          18.182   0.598
      -  d           0.000   0.619
  
    # Using partial waves for O as LCAO basis

  C:
    name: Carbon
    id: 4aa54d4b901d75f77cc0ea3eec22967b
    Z: 6.0
    valence: 4
    core: 2
    charge: 0.0
    file: /apps/Common/software/GPAW-setups/0.9.20000/C.PBE.gz
    compensation charges: {type: gauss,
                           rc: 0.20,
                           lmax: 2}
    cutoffs: {filter: 1.14,
              core: 1.14}
    valence states:
      #              energy  rcut
      - 2s(2.00)   -13.751   0.635
      - 2p(2.00)    -5.284   0.635
      -  s          13.461   0.635
      -  p          21.927   0.635
      -  d           0.000   0.635
  
    # Using partial waves for C as LCAO basis

Reference energy: -13513203.275138  # eV

Spin-paired calculation

Convergence criteria:
 Maximum [total energy] change in last 3 cyles: 0.0005 eV / electron
 Maximum integral of absolute [dens]ity change: 0.0001 electrons / valence electron
 Maximum integral of absolute [eigenst]ate change: 4e-08 eV^2 / valence electron
 Maximum number of scf [iter]ations: 333
 (Square brackets indicate name in SCF output, whereas a 'c' in
 the SCF output indicates the quantity has converged.)

Symmetries present (total): 6

  ( 1  0  0)  ( 1 -1  0)  ( 0  1  0)  ( 0 -1  0)  (-1  1  0)  (-1  0  0)
  ( 0  1  0)  ( 0 -1  0)  ( 1  0  0)  ( 1 -1  0)  (-1  0  0)  (-1  1  0)
  ( 0  0  1)  ( 0  0  1)  ( 0  0  1)  ( 0  0  1)  ( 0  0  1)  ( 0  0  1)
Note: your k-points are not as symmetric as your crystal!

16 k-points: 4 x 4 x 1 Monkhorst-Pack grid
6 k-points in the irreducible part of the Brillouin zone
       k-points in crystal coordinates                weights
   0:     0.12500000   -0.12500000    0.00000000          2/16
   1:     0.12500000    0.12500000    0.00000000          2/16
   2:     0.37500000   -0.37500000    0.00000000          2/16
   3:     0.37500000   -0.12500000    0.00000000          4/16
   4:     0.37500000    0.12500000    0.00000000          4/16
   5:     0.37500000    0.37500000    0.00000000          2/16

Wave functions: Plane wave expansion
  Cutoff energy: 450.000 eV
  Number of coefficients (min, max): 22059, 22107
  Pulay-stress correction: 0.000000 eV/Ang^3 (de/decut=0.000000)
  Using FFTW library
  ScaLapack parameters: grid=1x1, blocksize=None
  Wavefunction extrapolation:
    Improved wavefunction reuse through dual PAW basis 

Occupation numbers: Fermi-Dirac:
  width: 0.1000  # eV
 

Eigensolver
   Davidson(niter=2) 

Densities:
  Coarse grid: 42*42*84 grid
  Fine grid: 84*84*168 grid
  Total Charge: 0.000000 

Density mixing:
  Method: separate
  Backend: pulay
  Linear mixing parameter: 0.05
  old densities: 5
  Damping of long wavelength oscillations: 50 

Hamiltonian:
  XC and Coulomb potentials evaluated on a 84*84*168 grid
  Using the PBE Exchange-Correlation functional
  External potential:
    NoExternalPotential
 

XC parameters: PBE with 2 nearest neighbor stencil

Memory estimate:
  Process memory now: 783.61 MiB
  Calculator: 397.52 MiB
    Density: 9.49 MiB
      Arrays: 3.67 MiB
      Localized functions: 4.41 MiB
      Mixer: 1.41 MiB
    Hamiltonian: 2.52 MiB
      Arrays: 2.40 MiB
      XC: 0.00 MiB
      Poisson: 0.00 MiB
      vbar: 0.12 MiB
    Wavefunctions: 385.50 MiB
      Arrays psit_nG: 273.23 MiB
      Eigensolver: 103.90 MiB
      Projections: 0.79 MiB
      Projectors: 1.58 MiB
      PW-descriptor: 6.00 MiB

Total number of cores used: 16
Parallelization over k-points: 2
Domain decomposition: 2 x 2 x 2

Number of atoms: 29
Number of atomic orbitals: 332
Number of bands in calculation: 270
Number of valence electrons: 442
Bands to converge: occupied

... initialized

Initializing position-dependent things.

Density initialized from atomic densities
Creating initial wave functions:
  270 bands from LCAO basis set

                                            
                                            
                                            
                                            
                                            
                                            
                                            
       O                                    
                 Pt     Pt     Pt           
       C                                    
            Pt    PPt    PPt   Pt           
       Pt    PPt    PPt    Pt               
                                            
        Pt     Pt    PPt    Pt    Pt        
                                            
                Pt     Pt     Pt            
           Pt     Pt     Pt                 
                                            
                                            
                                            
                                            

Positions:
   0 Pt     1.403607    0.810373    6.000000    ( 0.0000,  0.0000,  0.0000)
   1 Pt     4.210821    0.810373    6.000000    ( 0.0000,  0.0000,  0.0000)
   2 Pt     7.018035    0.810373    6.000000    ( 0.0000,  0.0000,  0.0000)
   3 Pt     2.807214    3.241491    6.000000    ( 0.0000,  0.0000,  0.0000)
   4 Pt     5.614428    3.241491    6.000000    ( 0.0000,  0.0000,  0.0000)
   5 Pt     8.421642    3.241491    6.000000    ( 0.0000,  0.0000,  0.0000)
   6 Pt     4.210821    5.672610    6.000000    ( 0.0000,  0.0000,  0.0000)
   7 Pt     7.018035    5.672610    6.000000    ( 0.0000,  0.0000,  0.0000)
   8 Pt     9.825249    5.672610    6.000000    ( 0.0000,  0.0000,  0.0000)
   9 Pt    -0.000000    1.620746    8.292081    ( 0.0000,  0.0000,  0.0000)
  10 Pt     2.807214    1.620746    8.292081    ( 0.0000,  0.0000,  0.0000)
  11 Pt     5.614428    1.620746    8.292081    ( 0.0000,  0.0000,  0.0000)
  12 Pt     1.403607    4.051864    8.292081    ( 0.0000,  0.0000,  0.0000)
  13 Pt     4.210821    4.051864    8.292081    ( 0.0000,  0.0000,  0.0000)
  14 Pt     7.018035    4.051864    8.292081    ( 0.0000,  0.0000,  0.0000)
  15 Pt     2.807214    6.482983    8.292081    ( 0.0000,  0.0000,  0.0000)
  16 Pt     5.614428    6.482983    8.292081    ( 0.0000,  0.0000,  0.0000)
  17 Pt     8.421642    6.482983    8.292081    ( 0.0000,  0.0000,  0.0000)
  18 Pt     0.000000    0.000000   10.584161    ( 0.0000,  0.0000,  0.0000)
  19 Pt     2.807214    0.000000   10.584161    ( 0.0000,  0.0000,  0.0000)
  20 Pt     5.614428    0.000000   10.584161    ( 0.0000,  0.0000,  0.0000)
  21 Pt     1.403607    2.431119   10.584161    ( 0.0000,  0.0000,  0.0000)
  22 Pt     4.210821    2.431119   10.584161    ( 0.0000,  0.0000,  0.0000)
  23 Pt     7.018035    2.431119   10.584161    ( 0.0000,  0.0000,  0.0000)
  24 Pt     2.807214    4.862237   10.584161    ( 0.0000,  0.0000,  0.0000)
  25 Pt     5.614428    4.862237   10.584161    ( 0.0000,  0.0000,  0.0000)
  26 Pt     8.421642    4.862237   10.584161    ( 0.0000,  0.0000,  0.0000)
  27 O      0.000000    0.000000   13.734501    ( 0.0000,  0.0000,  0.0000)
  28 C      0.000000    0.000000   12.584161    ( 0.0000,  0.0000,  0.0000)

Unit cell:
           periodic     x           y           z      points  spacing
  1. axis:    yes    8.421642    0.000000    0.000000    42     0.1737
  2. axis:    yes    4.210821    7.293356    0.000000    42     0.1737
  3. axis:    no     0.000000    0.000000   16.584161    84     0.1974

  Lengths:   8.421642   8.421642  16.584161
  Angles:   90.000000  90.000000  60.000000

Effective grid spacing dv^(1/3) = 0.1901

     iter     time        total  log10-change:
                         energy  eigst   dens
iter:   1 12:12:45  -189.193112
iter:   2 12:12:53  -186.506883  -1.16  -1.40
iter:   3 12:13:00  -182.666751  -1.79  -1.44
iter:   4 12:13:08  -183.177023  -1.67  -1.54
iter:   5 12:13:16  -177.961075  -1.90  -1.58
iter:   6 12:13:24  -177.714160  -2.52  -1.92
iter:   7 12:13:32  -177.573644  -2.77  -2.07
iter:   8 12:13:40  -177.556927c -3.33  -2.22
iter:   9 12:13:48  -177.469002c -3.09  -2.27
iter:  10 12:13:56  -177.470848c -3.37  -2.45
iter:  11 12:14:03  -177.429846c -3.76  -2.60
iter:  12 12:14:11  -177.419635c -3.80  -2.82
iter:  13 12:14:19  -177.419640c -4.15  -3.01
iter:  14 12:14:27  -177.419506c -4.84  -3.15
iter:  15 12:14:35  -177.420781c -5.00  -3.18
iter:  16 12:14:43  -177.422984c -4.89  -3.31
iter:  17 12:14:51  -177.423398c -5.10  -3.56
iter:  18 12:14:59  -177.423438c -5.84  -3.79
iter:  19 12:15:07  -177.423098c -5.91  -3.87
iter:  20 12:15:14  -177.422876c -6.24  -4.01c
iter:  21 12:15:22  -177.422764c -6.65  -4.13c
iter:  22 12:15:30  -177.422733c -7.26  -4.22c
iter:  23 12:15:38  -177.422687c -6.69  -4.25c
iter:  24 12:15:46  -177.422661c -7.24  -4.43c
iter:  25 12:15:54  -177.422634c -7.31  -4.40c
iter:  26 12:16:02  -177.422617c -7.81c -4.66c

Converged after 26 iterations.

Dipole moment: (-0.201463, -0.116314, 0.189769) |e|*Ang

Energy contributions relative to reference atoms: (reference = -13513203.275138)

Kinetic:       -299.215706
Potential:     +224.896628
External:        +0.000000
XC:             -87.580480
Entropy (-ST):   -1.758799
Local:          -14.643659
--------------------------
Free energy:   -178.302016
Extrapolated:  -177.422617

Showing only first 2 kpts
 Kpt  Band  Eigenvalues  Occupancy
  0   219      1.53443    1.41312
  0   220      1.55659    1.31721
  0   221      1.56914    1.25972
  0   222      1.59665    1.12753

  1   219      1.37771    1.84052
  1   220      1.42021    1.76595
  1   221      1.43673    1.72959
  1   222      1.47737    1.61979


Fermi level: 1.62230

No gap

Forces in eV/Ang:
  0 Pt    0.00988    0.00570   -0.01869
  1 Pt    0.00000    0.01226   -0.07800
  2 Pt   -0.00988    0.00570   -0.01869
  3 Pt    0.01062   -0.00613   -0.07800
  4 Pt   -0.01062   -0.00613   -0.07800
  5 Pt    0.00000    0.02173   -0.15651
  6 Pt    0.00000   -0.01140   -0.01869
  7 Pt    0.01882   -0.01086   -0.15651
  8 Pt   -0.01882   -0.01086   -0.15651
  9 Pt   -0.00000   -0.00531    0.04510
 10 Pt    0.01839    0.01062   -0.00622
 11 Pt   -0.01839    0.01062   -0.00622
 12 Pt    0.00997   -0.00576   -0.04275
 13 Pt    0.00000   -0.02123   -0.00622
 14 Pt   -0.00997   -0.00576   -0.04275
 15 Pt    0.00460    0.00266    0.04510
 16 Pt   -0.00460    0.00266    0.04510
 17 Pt    0.00000    0.01152   -0.04275
 18 Pt    0.00000    0.00000    2.77691
 19 Pt    0.37039    0.00026   -0.01880
 20 Pt   -0.37039    0.00026   -0.01880
 21 Pt    0.18542    0.32063   -0.01880
 22 Pt    0.00000   -0.00000    0.06355
 23 Pt   -0.18542    0.32063   -0.01880
 24 Pt   -0.18497   -0.32090   -0.01880
 25 Pt    0.18497   -0.32090   -0.01880
 26 Pt    0.00000    0.00000    0.06248
 27 O     0.00000   -0.00000   -0.09854
 28 C     0.00000    0.00000   -1.87657

System changes: positions 

Initializing position-dependent things.

Density initialized from wave functions
                                            
                                            
                                            
                                            
                                            
                                            
                                            
       O                                    
                 Pt     Pt     Pt           
       C                                    
            Pt    PPt    PPt   Pt           
       Pt    PPt    PPt    Pt               
                                            
        Pt     Pt    PPt    Pt    Pt        
                                            
                Pt     Pt     Pt            
           Pt     Pt     Pt                 
                                            
                                            
                                            
                                            

Positions:
   0 Pt     1.403607    0.810373    6.000000    ( 0.0000,  0.0000,  0.0000)
   1 Pt     4.210821    0.810373    6.000000    ( 0.0000,  0.0000,  0.0000)
   2 Pt     7.018035    0.810373    6.000000    ( 0.0000,  0.0000,  0.0000)
   3 Pt     2.807214    3.241491    6.000000    ( 0.0000,  0.0000,  0.0000)
   4 Pt     5.614428    3.241491    6.000000    ( 0.0000,  0.0000,  0.0000)
   5 Pt     8.421642    3.241491    6.000000    ( 0.0000,  0.0000,  0.0000)
   6 Pt     4.210821    5.672610    6.000000    ( 0.0000,  0.0000,  0.0000)
   7 Pt     7.018035    5.672610    6.000000    ( 0.0000,  0.0000,  0.0000)
   8 Pt     9.825249    5.672610    6.000000    ( 0.0000,  0.0000,  0.0000)
   9 Pt    -0.000000    1.620746    8.292081    ( 0.0000,  0.0000,  0.0000)
  10 Pt     2.807214    1.620746    8.292081    ( 0.0000,  0.0000,  0.0000)
  11 Pt     5.614428    1.620746    8.292081    ( 0.0000,  0.0000,  0.0000)
  12 Pt     1.403607    4.051864    8.292081    ( 0.0000,  0.0000,  0.0000)
  13 Pt     4.210821    4.051864    8.292081    ( 0.0000,  0.0000,  0.0000)
  14 Pt     7.018035    4.051864    8.292081    ( 0.0000,  0.0000,  0.0000)
  15 Pt     2.807214    6.482983    8.292081    ( 0.0000,  0.0000,  0.0000)
  16 Pt     5.614428    6.482983    8.292081    ( 0.0000,  0.0000,  0.0000)
  17 Pt     8.421642    6.482983    8.292081    ( 0.0000,  0.0000,  0.0000)
  18 Pt     0.000000    0.000000   10.584161    ( 0.0000,  0.0000,  0.0000)
  19 Pt     2.807214    0.000000   10.584161    ( 0.0000,  0.0000,  0.0000)
  20 Pt     5.614428    0.000000   10.584161    ( 0.0000,  0.0000,  0.0000)
  21 Pt     1.403607    2.431119   10.584161    ( 0.0000,  0.0000,  0.0000)
  22 Pt     4.210821    2.431119   10.584161    ( 0.0000,  0.0000,  0.0000)
  23 Pt     7.018035    2.431119   10.584161    ( 0.0000,  0.0000,  0.0000)
  24 Pt     2.807214    4.862237   10.584161    ( 0.0000,  0.0000,  0.0000)
  25 Pt     5.614428    4.862237   10.584161    ( 0.0000,  0.0000,  0.0000)
  26 Pt     8.421642    4.862237   10.584161    ( 0.0000,  0.0000,  0.0000)
  27 O      0.000000    0.000000   13.734501    ( 0.0000,  0.0000,  0.0000)
  28 C      0.000000    0.000000   12.184161    ( 0.0000,  0.0000,  0.0000)

Unit cell:
           periodic     x           y           z      points  spacing
  1. axis:    yes    8.421642    0.000000    0.000000    42     0.1737
  2. axis:    yes    4.210821    7.293356    0.000000    42     0.1737
  3. axis:    no     0.000000    0.000000   16.584161    84     0.1974

  Lengths:   8.421642   8.421642  16.584161
  Angles:   90.000000  90.000000  60.000000

Effective grid spacing dv^(1/3) = 0.1901

     iter     time        total  log10-change:
                         energy  eigst   dens
iter:   1 12:16:12  -189.102311  -0.41
iter:   2 12:16:20  -182.344842  -1.72  -1.74
iter:   3 12:16:28  -185.383323  -1.73  -1.82
iter:   4 12:16:36  -175.175918  -1.98  -1.61
iter:   5 12:16:43  -174.132509  -2.78  -2.07
iter:   6 12:16:51  -173.763538  -3.45  -2.16
iter:   7 12:16:59  -173.475366  -2.48  -2.34
iter:   8 12:17:07  -173.344470  -3.29  -2.44
iter:   9 12:17:15  -173.231876  -3.40  -2.58
iter:  10 12:17:23  -173.201571c -3.74  -2.82
iter:  11 12:17:31  -173.195389c -4.36  -3.03
iter:  12 12:17:39  -173.194817c -4.82  -3.18
iter:  13 12:17:46  -173.200672c -4.89  -3.24
iter:  14 12:17:54  -173.199278c -4.75  -3.11
iter:  15 12:18:02  -173.198405c -5.25  -3.36
iter:  16 12:18:10  -173.197658c -5.38  -3.55
iter:  17 12:18:18  -173.197500c -5.94  -3.82
iter:  18 12:18:26  -173.197328c -6.45  -3.93
iter:  19 12:18:34  -173.197415c -6.12  -3.96
iter:  20 12:18:42  -173.197024c -6.46  -3.86
iter:  21 12:18:49  -173.196941c -6.86  -4.24c
iter:  22 12:18:57  -173.196888c -7.42c -4.36c

Converged after 22 iterations.

Dipole moment: (-0.240171, -0.138663, -0.662181) |e|*Ang

Energy contributions relative to reference atoms: (reference = -13513203.275138)

Kinetic:       -283.803897
Potential:     +213.051724
External:        +0.000000
XC:             -86.830076
Entropy (-ST):   -1.733943
Local:          -14.747666
--------------------------
Free energy:   -174.063859
Extrapolated:  -173.196888

Showing only first 2 kpts
 Kpt  Band  Eigenvalues  Occupancy
  0   219      1.22098    1.45356
  0   220      1.24663    1.34606
  0   221      1.26166    1.27823
  0   222      1.29454    1.12080

  1   219      1.08339    1.82655
  1   220      1.11943    1.76031
  1   221      1.12266    1.75340
  1   222      1.15485    1.67498


Fermi level: 1.31882

No gap

Forces in eV/Ang:
  0 Pt    0.00586    0.00339   -0.00453
  1 Pt    0.00000   -0.01096   -0.07072
  2 Pt   -0.00586    0.00339   -0.00453
  3 Pt   -0.00949    0.00548   -0.07072
  4 Pt    0.00949    0.00548   -0.07072
  5 Pt   -0.00000    0.07811   -0.22562
  6 Pt    0.00000   -0.00677   -0.00453
  7 Pt    0.06765   -0.03906   -0.22562
  8 Pt   -0.06765   -0.03906   -0.22562
  9 Pt   -0.00000    0.03656   -0.00996
 10 Pt    0.02139    0.01235   -0.01110
 11 Pt   -0.02139    0.01235   -0.01110
 12 Pt   -0.00036    0.00021   -0.04667
 13 Pt   -0.00000   -0.02470   -0.01110
 14 Pt    0.00036    0.00021   -0.04667
 15 Pt   -0.03167   -0.01828   -0.00996
 16 Pt    0.03167   -0.01828   -0.00996
 17 Pt    0.00000   -0.00042   -0.04667
 18 Pt   -0.00000   -0.00000   -9.50098
 19 Pt    0.52070   -0.00493   -0.07081
 20 Pt   -0.52070   -0.00493   -0.07081
 21 Pt    0.25608    0.45340   -0.07081
 22 Pt    0.00000   -0.00000    0.04623
 23 Pt   -0.25608    0.45340   -0.07081
 24 Pt   -0.26462   -0.44847   -0.07081
 25 Pt    0.26462   -0.44847   -0.07081
 26 Pt    0.00000    0.00000    0.05370
 27 O     0.00000   -0.00000  -10.15275
 28 C     0.00000   -0.00000   21.12987

System changes: positions 

Initializing position-dependent things.

Density initialized from wave functions
                                            
                                            
                                            
                                            
                                            
                                            
                                            
       O                                    
                 Pt     Pt     Pt           
       C                                    
            Pt    PPt    PPt   Pt           
       Pt    PPt    PPt    Pt               
                                            
        Pt     Pt    PPt    Pt    Pt        
                                            
                Pt     Pt     Pt            
           Pt     Pt     Pt                 
                                            
                                            
                                            
                                            

Positions:
   0 Pt     1.403607    0.810373    6.000000    ( 0.0000,  0.0000,  0.0000)
   1 Pt     4.210821    0.810373    6.000000    ( 0.0000,  0.0000,  0.0000)
   2 Pt     7.018035    0.810373    6.000000    ( 0.0000,  0.0000,  0.0000)
   3 Pt     2.807214    3.241491    6.000000    ( 0.0000,  0.0000,  0.0000)
   4 Pt     5.614428    3.241491    6.000000    ( 0.0000,  0.0000,  0.0000)
   5 Pt     8.421642    3.241491    6.000000    ( 0.0000,  0.0000,  0.0000)
   6 Pt     4.210821    5.672610    6.000000    ( 0.0000,  0.0000,  0.0000)
   7 Pt     7.018035    5.672610    6.000000    ( 0.0000,  0.0000,  0.0000)
   8 Pt     9.825249    5.672610    6.000000    ( 0.0000,  0.0000,  0.0000)
   9 Pt    -0.000000    1.620746    8.292081    ( 0.0000,  0.0000,  0.0000)
  10 Pt     2.807214    1.620746    8.292081    ( 0.0000,  0.0000,  0.0000)
  11 Pt     5.614428    1.620746    8.292081    ( 0.0000,  0.0000,  0.0000)
  12 Pt     1.403607    4.051864    8.292081    ( 0.0000,  0.0000,  0.0000)
  13 Pt     4.210821    4.051864    8.292081    ( 0.0000,  0.0000,  0.0000)
  14 Pt     7.018035    4.051864    8.292081    ( 0.0000,  0.0000,  0.0000)
  15 Pt     2.807214    6.482983    8.292081    ( 0.0000,  0.0000,  0.0000)
  16 Pt     5.614428    6.482983    8.292081    ( 0.0000,  0.0000,  0.0000)
  17 Pt     8.421642    6.482983    8.292081    ( 0.0000,  0.0000,  0.0000)
  18 Pt     0.000000    0.000000   10.584161    ( 0.0000,  0.0000,  0.0000)
  19 Pt     2.807214    0.000000   10.584161    ( 0.0000,  0.0000,  0.0000)
  20 Pt     5.614428    0.000000   10.584161    ( 0.0000,  0.0000,  0.0000)
  21 Pt     1.403607    2.431119   10.584161    ( 0.0000,  0.0000,  0.0000)
  22 Pt     4.210821    2.431119   10.584161    ( 0.0000,  0.0000,  0.0000)
  23 Pt     7.018035    2.431119   10.584161    ( 0.0000,  0.0000,  0.0000)
  24 Pt     2.807214    4.862237   10.584161    ( 0.0000,  0.0000,  0.0000)
  25 Pt     5.614428    4.862237   10.584161    ( 0.0000,  0.0000,  0.0000)
  26 Pt     8.421642    4.862237   10.584161    ( 0.0000,  0.0000,  0.0000)
  27 O      0.000000    0.000000   13.734501    ( 0.0000,  0.0000,  0.0000)
  28 C      0.000000    0.000000   12.548533    ( 0.0000,  0.0000,  0.0000)

Unit cell:
           periodic     x           y           z      points  spacing
  1. axis:    yes    8.421642    0.000000    0.000000    42     0.1737
  2. axis:    yes    4.210821    7.293356    0.000000    42     0.1737
  3. axis:    no     0.000000    0.000000   16.584161    84     0.1974

  Lengths:   8.421642   8.421642  16.584161
  Angles:   90.000000  90.000000  60.000000

Effective grid spacing dv^(1/3) = 0.1901

     iter     time        total  log10-change:
                         energy  eigst   dens
iter:   1 12:19:08  -183.700866  -1.14
iter:   2 12:19:15  -181.229580  -2.49  -2.02
iter:   3 12:19:23  -179.431549  -2.33  -2.19
iter:   4 12:19:31  -178.824089  -2.67  -2.06
iter:   5 12:19:39  -178.072990  -2.80  -2.15
iter:   6 12:19:47  -177.648268  -2.83  -2.28
iter:   7 12:19:55  -177.526087  -3.35  -2.48
iter:   8 12:20:03  -177.468223c -3.51  -2.68
iter:   9 12:20:11  -177.453060c -3.73  -2.83
iter:  10 12:20:19  -177.453726c -4.16  -2.85
iter:  11 12:20:26  -177.433867c -4.26  -2.84
iter:  12 12:20:34  -177.430129c -4.54  -3.08
iter:  13 12:20:42  -177.430023c -4.99  -3.24
iter:  14 12:20:50  -177.429236c -5.13  -3.34
iter:  15 12:20:58  -177.429367c -5.59  -3.57
iter:  16 12:21:06  -177.429574c -5.65  -3.63
iter:  17 12:21:14  -177.429229c -5.84  -3.56
iter:  18 12:21:22  -177.429031c -5.82  -3.77
iter:  19 12:21:30  -177.428973c -6.57  -4.04c
iter:  20 12:21:37  -177.428878c -6.06  -4.13c
iter:  21 12:21:45  -177.428883c -6.57  -4.22c
iter:  22 12:21:53  -177.428884c -7.27  -4.33c
iter:  23 12:22:01  -177.428938c -7.54c -4.39c

Converged after 23 iterations.

Dipole moment: (-0.205875, -0.118862, 0.103623) |e|*Ang

Energy contributions relative to reference atoms: (reference = -13513203.275138)

Kinetic:       -304.275005
Potential:     +229.232299
External:        +0.000000
XC:             -86.890106
Entropy (-ST):   -1.755257
Local:          -14.618498
--------------------------
Free energy:   -178.306566
Extrapolated:  -177.428938

Showing only first 2 kpts
 Kpt  Band  Eigenvalues  Occupancy
  0   219      1.50365    1.41685
  0   220      1.52581    1.32125
  0   221      1.53814    1.26496
  0   222      1.56692    1.12681

  1   219      1.34763    1.84082
  1   220      1.39014    1.76635
  1   221      1.40639    1.73068
  1   222      1.44522    1.62673


Fermi level: 1.59242

No gap

Forces in eV/Ang:
  0 Pt    0.00968    0.00559   -0.01041
  1 Pt    0.00000    0.00947   -0.07358
  2 Pt   -0.00968    0.00559   -0.01041
  3 Pt    0.00820   -0.00474   -0.07358
  4 Pt   -0.00820   -0.00474   -0.07358
  5 Pt    0.00000    0.02647   -0.15965
  6 Pt    0.00000   -0.01118   -0.01041
  7 Pt    0.02293   -0.01324   -0.15965
  8 Pt   -0.02293   -0.01324   -0.15965
  9 Pt   -0.00000   -0.00010    0.04276
 10 Pt    0.01990    0.01149   -0.00704
 11 Pt   -0.01990    0.01149   -0.00704
 12 Pt    0.00965   -0.00557   -0.04299
 13 Pt    0.00000   -0.02297   -0.00704
 14 Pt   -0.00965   -0.00557   -0.04299
 15 Pt    0.00008    0.00005    0.04276
 16 Pt   -0.00008    0.00005    0.04276
 17 Pt    0.00000    0.01114   -0.04299
 18 Pt   -0.00000   -0.00000    2.60224
 19 Pt    0.38265   -0.00126   -0.00548
 20 Pt   -0.38265   -0.00126   -0.00548
 21 Pt    0.19023    0.33201   -0.00548
 22 Pt    0.00000   -0.00000    0.07503
 23 Pt   -0.19023    0.33201   -0.00548
 24 Pt   -0.19242   -0.33075   -0.00548
 25 Pt    0.19242   -0.33075   -0.00548
 26 Pt   -0.00000    0.00000    0.07539
 27 O     0.00000   -0.00000   -3.29817
 28 C     0.00000   -0.00000    1.50361

System changes: positions 

Initializing position-dependent things.

Density initialized from wave functions
                                            
                                            
                                            
                                            
                                            
                                            
                                            
       O                                    
                 Pt     Pt     Pt           
       C                                    
            Pt    PPt    PPt   Pt           
       Pt    PPt    PPt    Pt               
                                            
        Pt     Pt    PPt    Pt    Pt        
                                            
                Pt     Pt     Pt            
           Pt     Pt     Pt                 
                                            
                                            
                                            
                                            

Positions:
   0 Pt     1.403607    0.810373    6.000000    ( 0.0000,  0.0000,  0.0000)
   1 Pt     4.210821    0.810373    6.000000    ( 0.0000,  0.0000,  0.0000)
   2 Pt     7.018035    0.810373    6.000000    ( 0.0000,  0.0000,  0.0000)
   3 Pt     2.807214    3.241491    6.000000    ( 0.0000,  0.0000,  0.0000)
   4 Pt     5.614428    3.241491    6.000000    ( 0.0000,  0.0000,  0.0000)
   5 Pt     8.421642    3.241491    6.000000    ( 0.0000,  0.0000,  0.0000)
   6 Pt     4.210821    5.672610    6.000000    ( 0.0000,  0.0000,  0.0000)
   7 Pt     7.018035    5.672610    6.000000    ( 0.0000,  0.0000,  0.0000)
   8 Pt     9.825249    5.672610    6.000000    ( 0.0000,  0.0000,  0.0000)
   9 Pt    -0.000000    1.620746    8.292081    ( 0.0000,  0.0000,  0.0000)
  10 Pt     2.807214    1.620746    8.292081    ( 0.0000,  0.0000,  0.0000)
  11 Pt     5.614428    1.620746    8.292081    ( 0.0000,  0.0000,  0.0000)
  12 Pt     1.403607    4.051864    8.292081    ( 0.0000,  0.0000,  0.0000)
  13 Pt     4.210821    4.051864    8.292081    ( 0.0000,  0.0000,  0.0000)
  14 Pt     7.018035    4.051864    8.292081    ( 0.0000,  0.0000,  0.0000)
  15 Pt     2.807214    6.482983    8.292081    ( 0.0000,  0.0000,  0.0000)
  16 Pt     5.614428    6.482983    8.292081    ( 0.0000,  0.0000,  0.0000)
  17 Pt     8.421642    6.482983    8.292081    ( 0.0000,  0.0000,  0.0000)
  18 Pt     0.000000    0.000000   10.584161    ( 0.0000,  0.0000,  0.0000)
  19 Pt     2.807214    0.000000   10.584161    ( 0.0000,  0.0000,  0.0000)
  20 Pt     5.614428    0.000000   10.584161    ( 0.0000,  0.0000,  0.0000)
  21 Pt     1.403607    2.431119   10.584161    ( 0.0000,  0.0000,  0.0000)
  22 Pt     4.210821    2.431119   10.584161    ( 0.0000,  0.0000,  0.0000)
  23 Pt     7.018035    2.431119   10.584161    ( 0.0000,  0.0000,  0.0000)
  24 Pt     2.807214    4.862237   10.584161    ( 0.0000,  0.0000,  0.0000)
  25 Pt     5.614428    4.862237   10.584161    ( 0.0000,  0.0000,  0.0000)
  26 Pt     8.421642    4.862237   10.584161    ( 0.0000,  0.0000,  0.0000)
  27 O      0.000000    0.000000   13.734501    ( 0.0000,  0.0000,  0.0000)
  28 C      0.000000    0.000000   12.565100    ( 0.0000,  0.0000,  0.0000)

Unit cell:
           periodic     x           y           z      points  spacing
  1. axis:    yes    8.421642    0.000000    0.000000    42     0.1737
  2. axis:    yes    4.210821    7.293356    0.000000    42     0.1737
  3. axis:    no     0.000000    0.000000   16.584161    84     0.1974

  Lengths:   8.421642   8.421642  16.584161
  Angles:   90.000000  90.000000  60.000000

Effective grid spacing dv^(1/3) = 0.1901

     iter     time        total  log10-change:
                         energy  eigst   dens
iter:   1 12:22:11  -177.466520  -3.75
iter:   2 12:22:19  -177.461007  -4.54  -3.03
iter:   3 12:22:27  -177.465550c -4.55  -3.15
iter:   4 12:22:35  -177.446414c -4.67  -2.95
iter:   5 12:22:43  -177.443514c -5.28  -3.50
iter:   6 12:22:51  -177.441414c -5.22  -3.55
iter:   7 12:22:59  -177.440916c -5.89  -3.80
iter:   8 12:23:07  -177.440850c -5.73  -3.91
iter:   9 12:23:14  -177.441012c -6.40  -4.07c
iter:  10 12:23:22  -177.440975c -6.75  -4.05c
iter:  11 12:23:30  -177.441012c -6.90  -4.28c
iter:  12 12:23:38  -177.441041c -7.05  -4.42c
iter:  13 12:23:46  -177.441032c -8.12c -4.58c

Converged after 13 iterations.

Dipole moment: (-0.202583, -0.116961, 0.143883) |e|*Ang

Energy contributions relative to reference atoms: (reference = -13513203.275138)

Kinetic:       -302.815117
Potential:     +228.020715
External:        +0.000000
XC:             -87.183644
Entropy (-ST):   -1.756709
Local:          -14.584631
--------------------------
Free energy:   -178.319386
Extrapolated:  -177.441032

Showing only first 2 kpts
 Kpt  Band  Eigenvalues  Occupancy
  0   219      1.51902    1.41500
  0   220      1.54117    1.31933
  0   221      1.55355    1.26268
  0   222      1.58178    1.12716

  1   219      1.36265    1.84068
  1   220      1.40507    1.76633
  1   221      1.42150    1.73023
  1   222      1.46125    1.62337


Fermi level: 1.60735

No gap

Forces in eV/Ang:
  0 Pt    0.01007    0.00581   -0.01043
  1 Pt    0.00000    0.01071   -0.07087
  2 Pt   -0.01007    0.00581   -0.01043
  3 Pt    0.00927   -0.00535   -0.07087
  4 Pt   -0.00927   -0.00535   -0.07087
  5 Pt    0.00000    0.02462   -0.15397
  6 Pt    0.00000   -0.01162   -0.01043
  7 Pt    0.02132   -0.01231   -0.15397
  8 Pt   -0.02132   -0.01231   -0.15397
  9 Pt    0.00000   -0.00629    0.04806
 10 Pt    0.01902    0.01098   -0.00523
 11 Pt   -0.01902    0.01098   -0.00523
 12 Pt    0.01018   -0.00588   -0.04112
 13 Pt   -0.00000   -0.02196   -0.00523
 14 Pt   -0.01018   -0.00588   -0.04112
 15 Pt    0.00545    0.00315    0.04806
 16 Pt   -0.00545    0.00315    0.04806
 17 Pt    0.00000    0.01175   -0.04112
 18 Pt    0.00000   -0.00000    2.72550
 19 Pt    0.37480   -0.00047   -0.02531
 20 Pt   -0.37480   -0.00047   -0.02531
 21 Pt    0.18700    0.32482   -0.02531
 22 Pt    0.00000   -0.00000    0.05573
 23 Pt   -0.18700    0.32482   -0.02531
 24 Pt   -0.18780   -0.32435   -0.02531
 25 Pt    0.18780   -0.32435   -0.02531
 26 Pt    0.00000   -0.00000    0.05518
 27 O     0.00000   -0.00000   -1.89502
 28 C     0.00000    0.00000    0.01584

System changes: positions 

Initializing position-dependent things.

Density initialized from wave functions
                                            
                                            
                                            
                                            
                                            
                                            
                                            
       O                                    
                 Pt     Pt     Pt           
       C                                    
            Pt    PPt    PPt   Pt           
       Pt    PPt    PPt    Pt               
                                            
        Pt     Pt    PPt    Pt    Pt        
                                            
                Pt     Pt     Pt            
           Pt     Pt     Pt                 
                                            
                                            
                                            
                                            

Positions:
   0 Pt     1.403607    0.810373    6.000000    ( 0.0000,  0.0000,  0.0000)
   1 Pt     4.210821    0.810373    6.000000    ( 0.0000,  0.0000,  0.0000)
   2 Pt     7.018035    0.810373    6.000000    ( 0.0000,  0.0000,  0.0000)
   3 Pt     2.807214    3.241491    6.000000    ( 0.0000,  0.0000,  0.0000)
   4 Pt     5.614428    3.241491    6.000000    ( 0.0000,  0.0000,  0.0000)
   5 Pt     8.421642    3.241491    6.000000    ( 0.0000,  0.0000,  0.0000)
   6 Pt     4.210821    5.672610    6.000000    ( 0.0000,  0.0000,  0.0000)
   7 Pt     7.018035    5.672610    6.000000    ( 0.0000,  0.0000,  0.0000)
   8 Pt     9.825249    5.672610    6.000000    ( 0.0000,  0.0000,  0.0000)
   9 Pt    -0.000000    1.620746    8.292081    ( 0.0000,  0.0000,  0.0000)
  10 Pt     2.807214    1.620746    8.292081    ( 0.0000,  0.0000,  0.0000)
  11 Pt     5.614428    1.620746    8.292081    ( 0.0000,  0.0000,  0.0000)
  12 Pt     1.403607    4.051864    8.292081    ( 0.0000,  0.0000,  0.0000)
  13 Pt     4.210821    4.051864    8.292081    ( 0.0000,  0.0000,  0.0000)
  14 Pt     7.018035    4.051864    8.292081    ( 0.0000,  0.0000,  0.0000)
  15 Pt     2.807214    6.482983    8.292081    ( 0.0000,  0.0000,  0.0000)
  16 Pt     5.614428    6.482983    8.292081    ( 0.0000,  0.0000,  0.0000)
  17 Pt     8.421642    6.482983    8.292081    ( 0.0000,  0.0000,  0.0000)
  18 Pt     0.000000    0.000000   10.584161    ( 0.0000,  0.0000,  0.0000)
  19 Pt     2.807214    0.000000   10.584161    ( 0.0000,  0.0000,  0.0000)
  20 Pt     5.614428    0.000000   10.584161    ( 0.0000,  0.0000,  0.0000)
  21 Pt     1.403607    2.431119   10.584161    ( 0.0000,  0.0000,  0.0000)
  22 Pt     4.210821    2.431119   10.584161    ( 0.0000,  0.0000,  0.0000)
  23 Pt     7.018035    2.431119   10.584161    ( 0.0000,  0.0000,  0.0000)
  24 Pt     2.807214    4.862237   10.584161    ( 0.0000,  0.0000,  0.0000)
  25 Pt     5.614428    4.862237   10.584161    ( 0.0000,  0.0000,  0.0000)
  26 Pt     8.421642    4.862237   10.584161    ( 0.0000,  0.0000,  0.0000)
  27 O      0.000000    0.000000   13.734501    ( 0.0000,  0.0000,  0.0000)
  28 C      0.000000    0.000000   12.565210    ( 0.0000,  0.0000,  0.0000)

Unit cell:
           periodic     x           y           z      points  spacing
  1. axis:    yes    8.421642    0.000000    0.000000    42     0.1737
  2. axis:    yes    4.210821    7.293356    0.000000    42     0.1737
  3. axis:    no     0.000000    0.000000   16.584161    84     0.1974

  Lengths:   8.421642   8.421642  16.584161
  Angles:   90.000000  90.000000  60.000000

Effective grid spacing dv^(1/3) = 0.1901

     iter     time        total  log10-change:
                         energy  eigst   dens
iter:   1 12:23:56  -177.440736  -6.24
iter:   2 12:24:04  -177.441085  -6.49  -4.10c
iter:   3 12:24:12  -177.440834c -7.01  -4.00
iter:   4 12:24:20  -177.440946c -7.21  -4.46c
iter:   5 12:24:28  -177.440963c -7.80c -4.81c

Converged after 5 iterations.

Dipole moment: (-0.203225, -0.117332, 0.144776) |e|*Ang

Energy contributions relative to reference atoms: (reference = -13513203.275138)

Kinetic:       -302.812480
Potential:     +228.031991
External:        +0.000000
XC:             -87.170430
Entropy (-ST):   -1.756849
Local:          -14.611620
--------------------------
Free energy:   -178.319388
Extrapolated:  -177.440963

Showing only first 2 kpts
 Kpt  Band  Eigenvalues  Occupancy
  0   219      1.51827    1.41505
  0   220      1.54044    1.31929
  0   221      1.55282    1.26267
  0   222      1.58103    1.12723

  1   219      1.36189    1.84072
  1   220      1.40439    1.76622
  1   221      1.42080    1.73016
  1   222      1.46049    1.62344


Fermi level: 1.60661

No gap

Forces in eV/Ang:
  0 Pt    0.00964    0.00557   -0.01663
  1 Pt    0.00000    0.01048   -0.07662
  2 Pt   -0.00964    0.00557   -0.01663
  3 Pt    0.00908   -0.00524   -0.07662
  4 Pt   -0.00908   -0.00524   -0.07662
  5 Pt   -0.00000    0.02466   -0.15973
  6 Pt    0.00000   -0.01113   -0.01663
  7 Pt    0.02136   -0.01233   -0.15973
  8 Pt   -0.02136   -0.01233   -0.15973
  9 Pt   -0.00000   -0.00536    0.04477
 10 Pt    0.01891    0.01092   -0.00774
 11 Pt   -0.01891    0.01092   -0.00774
 12 Pt    0.01035   -0.00598   -0.04362
 13 Pt    0.00000   -0.02183   -0.00774
 14 Pt   -0.01035   -0.00598   -0.04362
 15 Pt    0.00464    0.00268    0.04477
 16 Pt   -0.00464    0.00268    0.04477
 17 Pt    0.00000    0.01195   -0.04362
 18 Pt    0.00000   -0.00000    2.69306
 19 Pt    0.38106   -0.00033   -0.01894
 20 Pt   -0.38106   -0.00033   -0.01894
 21 Pt    0.19025    0.33017   -0.01894
 22 Pt   -0.00000   -0.00000    0.06598
 23 Pt   -0.19025    0.33017   -0.01894
 24 Pt   -0.19082   -0.32984   -0.01894
 25 Pt    0.19082   -0.32984   -0.01894
 26 Pt    0.00000    0.00000    0.06476
 27 O    -0.00000   -0.00000   -1.90383
 28 C     0.00000   -0.00000    0.01797

System changes: positions 

Initializing position-dependent things.

Density initialized from wave functions
                                            
                                            
                                            
                                            
                                            
                                            
                                            
       O                                    
                 Pt     Pt     Pt           
       C                                    
            Pt    PPt    PPt   Pt           
       Pt    PPt    PPt    Pt               
                                            
        Pt     Pt    PPt    Pt    Pt        
                                            
                Pt     Pt     Pt            
           Pt     Pt     Pt                 
                                            
                                            
                                            
                                            

Positions:
   0 Pt     1.403607    0.810373    6.000000    ( 0.0000,  0.0000,  0.0000)
   1 Pt     4.210821    0.810373    6.000000    ( 0.0000,  0.0000,  0.0000)
   2 Pt     7.018035    0.810373    6.000000    ( 0.0000,  0.0000,  0.0000)
   3 Pt     2.807214    3.241491    6.000000    ( 0.0000,  0.0000,  0.0000)
   4 Pt     5.614428    3.241491    6.000000    ( 0.0000,  0.0000,  0.0000)
   5 Pt     8.421642    3.241491    6.000000    ( 0.0000,  0.0000,  0.0000)
   6 Pt     4.210821    5.672610    6.000000    ( 0.0000,  0.0000,  0.0000)
   7 Pt     7.018035    5.672610    6.000000    ( 0.0000,  0.0000,  0.0000)
   8 Pt     9.825249    5.672610    6.000000    ( 0.0000,  0.0000,  0.0000)
   9 Pt    -0.000000    1.620746    8.292081    ( 0.0000,  0.0000,  0.0000)
  10 Pt     2.807214    1.620746    8.292081    ( 0.0000,  0.0000,  0.0000)
  11 Pt     5.614428    1.620746    8.292081    ( 0.0000,  0.0000,  0.0000)
  12 Pt     1.403607    4.051864    8.292081    ( 0.0000,  0.0000,  0.0000)
  13 Pt     4.210821    4.051864    8.292081    ( 0.0000,  0.0000,  0.0000)
  14 Pt     7.018035    4.051864    8.292081    ( 0.0000,  0.0000,  0.0000)
  15 Pt     2.807214    6.482983    8.292081    ( 0.0000,  0.0000,  0.0000)
  16 Pt     5.614428    6.482983    8.292081    ( 0.0000,  0.0000,  0.0000)
  17 Pt     8.421642    6.482983    8.292081    ( 0.0000,  0.0000,  0.0000)
  18 Pt     0.000000    0.000000   10.584161    ( 0.0000,  0.0000,  0.0000)
  19 Pt     2.807214    0.000000   10.584161    ( 0.0000,  0.0000,  0.0000)
  20 Pt     5.614428    0.000000   10.584161    ( 0.0000,  0.0000,  0.0000)
  21 Pt     1.403607    2.431119   10.584161    ( 0.0000,  0.0000,  0.0000)
  22 Pt     4.210821    2.431119   10.584161    ( 0.0000,  0.0000,  0.0000)
  23 Pt     7.018035    2.431119   10.584161    ( 0.0000,  0.0000,  0.0000)
  24 Pt     2.807214    4.862237   10.584161    ( 0.0000,  0.0000,  0.0000)
  25 Pt     5.614428    4.862237   10.584161    ( 0.0000,  0.0000,  0.0000)
  26 Pt     8.421642    4.862237   10.584161    ( 0.0000,  0.0000,  0.0000)
  27 O      0.000000    0.000000   13.734501    ( 0.0000,  0.0000,  0.0000)
  28 C      0.000000    0.000000   12.565285    ( 0.0000,  0.0000,  0.0000)

Unit cell:
           periodic     x           y           z      points  spacing
  1. axis:    yes    8.421642    0.000000    0.000000    42     0.1737
  2. axis:    yes    4.210821    7.293356    0.000000    42     0.1737
  3. axis:    no     0.000000    0.000000   16.584161    84     0.1974

  Lengths:   8.421642   8.421642  16.584161
  Angles:   90.000000  90.000000  60.000000

Effective grid spacing dv^(1/3) = 0.1901

     iter     time        total  log10-change:
                         energy  eigst   dens
iter:   1 12:24:38  -177.440958  -7.01
iter:   2 12:24:46  -177.441064  -7.05  -4.46c
iter:   3 12:24:54  -177.440971c -7.64c -4.26c

Converged after 3 iterations.

Dipole moment: (-0.202807, -0.117091, 0.144193) |e|*Ang

Energy contributions relative to reference atoms: (reference = -13513203.275138)

Kinetic:       -302.745197
Potential:     +227.973404
External:        +0.000000
XC:             -87.179107
Entropy (-ST):   -1.756841
Local:          -14.611651
--------------------------
Free energy:   -178.319391
Extrapolated:  -177.440971

Showing only first 2 kpts
 Kpt  Band  Eigenvalues  Occupancy
  0   219      1.51871    1.41506
  0   220      1.54087    1.31934
  0   221      1.55326    1.26269
  0   222      1.58150    1.12710

  1   219      1.36240    1.84062
  1   220      1.40479    1.76632
  1   221      1.42125    1.73014
  1   222      1.46091    1.62352


Fermi level: 1.60706

No gap

Forces in eV/Ang:
  0 Pt    0.00976    0.00563   -0.01076
  1 Pt    0.00000    0.01059   -0.07137
  2 Pt   -0.00976    0.00563   -0.01076
  3 Pt    0.00918   -0.00530   -0.07137
  4 Pt   -0.00918   -0.00530   -0.07137
  5 Pt   -0.00000    0.02400   -0.15402
  6 Pt    0.00000   -0.01127   -0.01076
  7 Pt    0.02079   -0.01200   -0.15402
  8 Pt   -0.02079   -0.01200   -0.15402
  9 Pt   -0.00000   -0.00382    0.04452
 10 Pt    0.01871    0.01080   -0.00612
 11 Pt   -0.01871    0.01080   -0.00612
 12 Pt    0.01036   -0.00598   -0.04169
 13 Pt   -0.00000   -0.02161   -0.00612
 14 Pt   -0.01036   -0.00598   -0.04169
 15 Pt    0.00331    0.00191    0.04452
 16 Pt   -0.00331    0.00191    0.04452
 17 Pt   -0.00000    0.01196   -0.04169
 18 Pt    0.00000   -0.00000    2.70458
 19 Pt    0.37723   -0.00045   -0.02462
 20 Pt   -0.37723   -0.00045   -0.02462
 21 Pt    0.18822    0.32691   -0.02462
 22 Pt    0.00000   -0.00000    0.05481
 23 Pt   -0.18822    0.32691   -0.02462
 24 Pt   -0.18900   -0.32646   -0.02462
 25 Pt    0.18900   -0.32646   -0.02462
 26 Pt    0.00000   -0.00000    0.05414
 27 O     0.00000    0.00000   -1.89404
 28 C    -0.00000   -0.00000    0.00322

Timing:                                      incl.     excl.
-------------------------------------------------------------------
Density initialized from wave functions:     2.415     2.131   0.3% |
 Symmetrize density:                         0.284     0.284   0.0% |
Forces:                                      8.292     8.292   1.1% |
Hamiltonian:                                 1.777     0.019   0.0% |
 Atomic:                                     0.861     0.433   0.1% |
  XC Correction:                             0.428     0.428   0.1% |
 Calculate atomic Hamiltonians:              0.456     0.456   0.1% |
 Communicate:                                0.018     0.018   0.0% |
 Initialize Hamiltonian:                     0.000     0.000   0.0% |
 Poisson:                                    0.005     0.005   0.0% |
 XC 3D grid:                                 0.418     0.418   0.1% |
LCAO initialization:                        13.892     0.314   0.0% |
 LCAO eigensolver:                           0.879     0.001   0.0% |
  Calculate projections:                     0.006     0.006   0.0% |
  DenseAtomicCorrection:                     0.007     0.007   0.0% |
  Distribute overlap matrix:                 0.114     0.114   0.0% |
  Orbital Layouts:                           0.231     0.231   0.0% |
  Potential matrix:                          0.493     0.493   0.1% |
  Sum over cells:                            0.027     0.027   0.0% |
 LCAO to grid:                              12.361    12.361   1.6% ||
 Set positions (LCAO WFS):                   0.337     0.130   0.0% |
  Basic WFS set positions:                   0.004     0.004   0.0% |
  Basis functions set positions:             0.000     0.000   0.0% |
  P tci:                                     0.124     0.124   0.0% |
  ST tci:                                    0.047     0.047   0.0% |
  mktci:                                     0.032     0.032   0.0% |
PWDescriptor:                                0.271     0.271   0.0% |
Redistribute:                                0.010     0.010   0.0% |
SCF-cycle:                                 722.998     0.706   0.1% |
 Davidson:                                 652.438   100.353  13.3% |----|
  Apply H:                                  54.918    53.237   7.0% |--|
   HMM T:                                    1.681     1.681   0.2% |
  Subspace diag:                            98.229     0.039   0.0% |
   calc_h_matrix:                           67.413    12.772   1.7% ||
    Apply H:                                54.641    52.958   7.0% |--|
     HMM T:                                  1.682     1.682   0.2% |
   diagonalize:                              8.843     8.843   1.2% |
   rotate_psi:                              21.934    21.934   2.9% ||
  calc. matrices:                          194.203    84.538  11.2% |---|
   Apply H:                                109.665   106.322  14.1% |-----|
    HMM T:                                   3.343     3.343   0.4% |
  diagonalize:                             160.468   160.468  21.2% |-------|
  rotate_psi:                               44.268    44.268   5.9% |-|
 Density:                                   41.710     0.002   0.0% |
  Atomic density matrices:                   0.425     0.425   0.1% |
  Mix:                                       8.757     8.757   1.2% |
  Multipole moments:                         0.018     0.018   0.0% |
  Pseudo density:                           32.508    27.587   3.6% ||
   Symmetrize density:                       4.921     4.921   0.7% |
 Hamiltonian:                               25.339     0.275   0.0% |
  Atomic:                                   12.351     6.204   0.8% |
   XC Correction:                            6.146     6.146   0.8% |
  Calculate atomic Hamiltonians:             6.507     6.507   0.9% |
  Communicate:                               0.176     0.176   0.0% |
  Poisson:                                   0.079     0.079   0.0% |
  XC 3D grid:                                5.950     5.950   0.8% |
 Orthonormalize:                             2.806     0.003   0.0% |
  calc_s_matrix:                             0.412     0.412   0.1% |
  inverse-cholesky:                          0.230     0.230   0.0% |
  projections:                               1.429     1.429   0.2% |
  rotate_psi_s:                              0.730     0.730   0.1% |
Set symmetry:                                0.003     0.003   0.0% |
Other:                                       6.652     6.652   0.9% |
-------------------------------------------------------------------
Total:                                               756.311 100.0%

Memory usage: 783.61 MiB
Date: Thu Mar  2 12:24:57 2023
