
  ___ ___ ___ _ _ _  
 |   |   |_  | | | | 
 | | | | | . | | | | 
 |__ |  _|___|_____|  22.8.0
 |___|_|             

User:   gotols@vera50-3
Date:   Fri Mar 10 11:56:35 2023
Arch:   x86_64
Pid:    2977249
CWD:    /cephyr/users/gotols/Vera/TIF320-Computational-materials-and-molecular-physics-Assignments
Python: 3.10.4
gpaw:   /apps/Arch/software/GPAW/22.8.0-foss-2022a/lib/python3.10/site-packages/gpaw
_gpaw:  /apps/Arch/software/GPAW/22.8.0-foss-2022a/lib/python3.10/site-packages/
        _gpaw.cpython-310-x86_64-linux-gnu.so
ase:    /apps/Arch/software/ASE/3.22.1-foss-2022a/lib/python3.10/site-packages/ase (version 3.22.1)
numpy:  /apps/Arch/software/SciPy-bundle/2022.05-foss-2022a/lib/python3.10/site-packages/numpy (version 1.22.3)
scipy:  /apps/Arch/software/SciPy-bundle/2022.05-foss-2022a/lib/python3.10/site-packages/scipy (version 1.8.1)
libxc:  5.2.3
units:  Angstrom and eV
cores: 32
OpenMP: False
OMP_NUM_THREADS: 1

Input parameters:
  kpts: [4 4 1]
  mode: {ecut: 450.00000000000006,
         name: pw}
  xc: PBE

System changes: positions, numbers, cell, pbc, initial_charges, initial_magmoms 

Initialize ...

species:
  Rh:
    name: Rhodium
    id: 4e1d209aee696a641de1ffa1459b299f
    Z: 45.0
    valence: 15
    core: 30
    charge: 0.0
    file: /apps/Common/software/GPAW-setups/0.9.20000/Rh.PBE.gz
    compensation charges: {type: gauss,
                           rc: 0.38,
                           lmax: 2}
    cutoffs: {filter: 2.48,
              core: 2.35}
    valence states:
      #              energy  rcut
      - 5s(1.00)    -4.297   1.270
      - 4p(6.00)   -50.429   1.381
      - 5p(0.00)    -0.852   1.381
      - 4d(8.00)    -5.942   1.244
      -  s          22.915   1.270
      -  d          21.270   1.244
  
    # Using partial waves for Rh as LCAO basis

  O:
    name: Oxygen
    id: 32ecd46bf208036f09c70b0ec9a88b78
    Z: 8.0
    valence: 6
    core: 2
    charge: 0.0
    file: /apps/Common/software/GPAW-setups/0.9.20000/O.PBE.gz
    compensation charges: {type: gauss,
                           rc: 0.21,
                           lmax: 2}
    cutoffs: {filter: 1.17,
              core: 0.83}
    valence states:
      #              energy  rcut
      - 2s(2.00)   -23.961   0.688
      - 2p(4.00)    -9.029   0.598
      -  s           3.251   0.688
      -  p          18.182   0.598
      -  d           0.000   0.619
  
    # Using partial waves for O as LCAO basis

  C:
    name: Carbon
    id: 4aa54d4b901d75f77cc0ea3eec22967b
    Z: 6.0
    valence: 4
    core: 2
    charge: 0.0
    file: /apps/Common/software/GPAW-setups/0.9.20000/C.PBE.gz
    compensation charges: {type: gauss,
                           rc: 0.20,
                           lmax: 2}
    cutoffs: {filter: 1.14,
              core: 1.14}
    valence states:
      #              energy  rcut
      - 2s(2.00)   -13.751   0.635
      - 2p(2.00)    -5.284   0.635
      -  s          13.461   0.635
      -  p          21.927   0.635
      -  d           0.000   0.635
  
    # Using partial waves for C as LCAO basis

Reference energy: -3516703.949422  # eV

Spin-paired calculation

Convergence criteria:
 Maximum [total energy] change in last 3 cyles: 0.0005 eV / electron
 Maximum integral of absolute [dens]ity change: 0.0001 electrons / valence electron
 Maximum integral of absolute [eigenst]ate change: 4e-08 eV^2 / valence electron
 Maximum number of scf [iter]ations: 333
 (Square brackets indicate name in SCF output, whereas a 'c' in
 the SCF output indicates the quantity has converged.)

Symmetries present (total): 6

  ( 1  0  0)  ( 1 -1  0)  ( 0  1  0)  ( 0 -1  0)  (-1  1  0)  (-1  0  0)
  ( 0  1  0)  ( 0 -1  0)  ( 1  0  0)  ( 1 -1  0)  (-1  0  0)  (-1  1  0)
  ( 0  0  1)  ( 0  0  1)  ( 0  0  1)  ( 0  0  1)  ( 0  0  1)  ( 0  0  1)
Note: your k-points are not as symmetric as your crystal!

16 k-points: 4 x 4 x 1 Monkhorst-Pack grid
6 k-points in the irreducible part of the Brillouin zone
       k-points in crystal coordinates                weights
   0:     0.12500000   -0.12500000    0.00000000          2/16
   1:     0.12500000    0.12500000    0.00000000          2/16
   2:     0.37500000   -0.37500000    0.00000000          2/16
   3:     0.37500000   -0.12500000    0.00000000          4/16
   4:     0.37500000    0.12500000    0.00000000          4/16
   5:     0.37500000    0.37500000    0.00000000          2/16

Wave functions: Plane wave expansion
  Cutoff energy: 450.000 eV
  Number of coefficients (min, max): 20454, 20528
  Pulay-stress correction: 0.000000 eV/Ang^3 (de/decut=0.000000)
  Using FFTW library
  ScaLapack parameters: grid=1x1, blocksize=None
  Wavefunction extrapolation:
    Improved wavefunction reuse through dual PAW basis 

Occupation numbers: Fermi-Dirac:
  width: 0.1000  # eV
 

Eigensolver
   Davidson(niter=2) 

Densities:
  Coarse grid: 40*40*81 grid
  Fine grid: 80*80*162 grid
  Total Charge: 0.000000 

Density mixing:
  Method: separate
  Backend: pulay
  Linear mixing parameter: 0.05
  old densities: 5
  Damping of long wavelength oscillations: 50 

Hamiltonian:
  XC and Coulomb potentials evaluated on a 80*80*162 grid
  Using the PBE Exchange-Correlation functional
  External potential:
    NoExternalPotential
 

XC parameters: PBE with 2 nearest neighbor stencil

Memory estimate:
  Process memory now: 283.55 MiB
  Calculator: 340.09 MiB
    Density: 4.31 MiB
      Arrays: 1.63 MiB
      Localized functions: 2.04 MiB
      Mixer: 0.64 MiB
    Hamiltonian: 1.12 MiB
      Arrays: 1.07 MiB
      XC: 0.00 MiB
      Poisson: 0.00 MiB
      vbar: 0.06 MiB
    Wavefunctions: 334.66 MiB
      Arrays psit_nG: 237.74 MiB
      Eigensolver: 90.59 MiB
      Projections: 0.37 MiB
      Projectors: 0.73 MiB
      PW-descriptor: 5.22 MiB

Total number of cores used: 32
Parallelization over k-points: 2
Domain decomposition: 2 x 2 x 4

Number of atoms: 29
Number of atomic orbitals: 332
Number of bands in calculation: 253
Number of valence electrons: 415
Bands to converge: occupied

... initialized

Initializing position-dependent things.

Density initialized from atomic densities
Creating initial wave functions:
  253 bands from LCAO basis set

                                           
                                           
                                           
                                           
                                           
                                           
                                           
       O                                   
                Rh     Rh     Rh           
       C                                   
            Rh   RRh    RRh    Rh          
       Rh    RRh   RRh    Rh               
                                           
        Rh     Rh   RRh    Rh    Rh        
                                           
                Rh    Rh     Rh            
           Rh    Rh     Rh                 
                                           
                                           
                                           
                                           

Positions:
   0 Rh     1.357645    0.783837    6.000000    ( 0.0000,  0.0000,  0.0000)
   1 Rh     4.072935    0.783837    6.000000    ( 0.0000,  0.0000,  0.0000)
   2 Rh     6.788225    0.783837    6.000000    ( 0.0000,  0.0000,  0.0000)
   3 Rh     2.715290    3.135347    6.000000    ( 0.0000,  0.0000,  0.0000)
   4 Rh     5.430580    3.135347    6.000000    ( 0.0000,  0.0000,  0.0000)
   5 Rh     8.145870    3.135347    6.000000    ( 0.0000,  0.0000,  0.0000)
   6 Rh     4.072935    5.486857    6.000000    ( 0.0000,  0.0000,  0.0000)
   7 Rh     6.788225    5.486857    6.000000    ( 0.0000,  0.0000,  0.0000)
   8 Rh     9.503515    5.486857    6.000000    ( 0.0000,  0.0000,  0.0000)
   9 Rh    -0.000000    1.567673    8.217025    ( 0.0000,  0.0000,  0.0000)
  10 Rh     2.715290    1.567673    8.217025    ( 0.0000,  0.0000,  0.0000)
  11 Rh     5.430580    1.567673    8.217025    ( 0.0000,  0.0000,  0.0000)
  12 Rh     1.357645    3.919184    8.217025    ( 0.0000,  0.0000,  0.0000)
  13 Rh     4.072935    3.919184    8.217025    ( 0.0000,  0.0000,  0.0000)
  14 Rh     6.788225    3.919184    8.217025    ( 0.0000,  0.0000,  0.0000)
  15 Rh     2.715290    6.270694    8.217025    ( 0.0000,  0.0000,  0.0000)
  16 Rh     5.430580    6.270694    8.217025    ( 0.0000,  0.0000,  0.0000)
  17 Rh     8.145870    6.270694    8.217025    ( 0.0000,  0.0000,  0.0000)
  18 Rh     0.000000    0.000000   10.434050    ( 0.0000,  0.0000,  0.0000)
  19 Rh     2.715290    0.000000   10.434050    ( 0.0000,  0.0000,  0.0000)
  20 Rh     5.430580    0.000000   10.434050    ( 0.0000,  0.0000,  0.0000)
  21 Rh     1.357645    2.351510   10.434050    ( 0.0000,  0.0000,  0.0000)
  22 Rh     4.072935    2.351510   10.434050    ( 0.0000,  0.0000,  0.0000)
  23 Rh     6.788225    2.351510   10.434050    ( 0.0000,  0.0000,  0.0000)
  24 Rh     2.715290    4.703020   10.434050    ( 0.0000,  0.0000,  0.0000)
  25 Rh     5.430580    4.703020   10.434050    ( 0.0000,  0.0000,  0.0000)
  26 Rh     8.145870    4.703020   10.434050    ( 0.0000,  0.0000,  0.0000)
  27 O      0.000000    0.000000   13.584390    ( 0.0000,  0.0000,  0.0000)
  28 C      0.000000    0.000000   12.434050    ( 0.0000,  0.0000,  0.0000)

Unit cell:
           periodic     x           y           z      points  spacing
  1. axis:    yes    8.145870    0.000000    0.000000    40     0.1764
  2. axis:    yes    4.072935    7.054530    0.000000    40     0.1764
  3. axis:    no     0.000000    0.000000   16.434050    81     0.2029

  Lengths:   8.145870   8.145870  16.434050
  Angles:   90.000000  90.000000  60.000000

Effective grid spacing dv^(1/3) = 0.1939

     iter     time        total  log10-change:
                         energy  eigst   dens
iter:   1 11:56:52  -212.367085
iter:   2 11:56:57  -209.919994  -1.32  -1.35
iter:   3 11:57:01  -211.213221  -1.57  -1.37
iter:   4 11:57:06  -200.281643  -1.06  -1.36
iter:   5 11:57:10  -198.969526  -2.20  -1.77
iter:   6 11:57:14  -198.808242  -2.69  -1.98
iter:   7 11:57:19  -198.736196  -2.49  -2.05
iter:   8 11:57:23  -198.684160c -3.23  -2.20
iter:   9 11:57:28  -198.673975c -3.32  -2.27
iter:  10 11:57:32  -198.610306c -3.40  -2.35
iter:  11 11:57:36  -198.564425c -3.36  -2.49
iter:  12 11:57:41  -198.550218c -3.66  -2.78
iter:  13 11:57:45  -198.549549c -4.42  -3.02
iter:  14 11:57:49  -198.549100c -4.80  -3.06
iter:  15 11:57:54  -198.549552c -4.47  -3.11
iter:  16 11:57:58  -198.550512c -4.99  -3.23
iter:  17 11:58:02  -198.548976c -5.34  -3.19
iter:  18 11:58:07  -198.548808c -5.57  -3.37
iter:  19 11:58:11  -198.548939c -5.52  -3.48
iter:  20 11:58:15  -198.549023c -5.65  -3.60
iter:  21 11:58:20  -198.549145c -5.86  -3.70
iter:  22 11:58:24  -198.549266c -6.11  -3.79
iter:  23 11:58:29  -198.549194c -6.38  -3.76
iter:  24 11:58:33  -198.549186c -6.23  -3.91
iter:  25 11:58:37  -198.549174c -6.75  -4.07c
iter:  26 11:58:42  -198.549152c -6.91  -4.13c
iter:  27 11:58:46  -198.549111c -6.90  -4.23c
iter:  28 11:58:50  -198.549120c -7.49c -4.35c

Converged after 28 iterations.

Dipole moment: (-0.236353, -0.136459, -0.026768) |e|*Ang

Energy contributions relative to reference atoms: (reference = -3516703.949422)

Kinetic:       -177.511317
Potential:      +93.473604
External:        +0.000000
XC:            -111.608780
Entropy (-ST):   -1.689797
Local:           -2.057728
--------------------------
Free energy:   -199.394018
Extrapolated:  -198.549120

Showing only first 2 kpts
 Kpt  Band  Eigenvalues  Occupancy
  0   205      1.76425    1.12847
  0   206      1.79882    0.95637
  0   207      1.81233    0.88928
  0   208      1.81418    0.88011

  1   205      1.70094    1.41839
  1   206      1.71184    1.37243
  1   207      1.76485    1.12554
  1   208      1.79113    0.99480


Fermi level: 1.79009

No gap

Forces in eV/Ang:
  0 Rh   -0.01497   -0.00864    0.49344
  1 Rh   -0.00000   -0.03754    0.44773
  2 Rh    0.01497   -0.00864    0.49344
  3 Rh   -0.03251    0.01877    0.44773
  4 Rh    0.03251    0.01877    0.44773
  5 Rh    0.00000    0.12809    0.32934
  6 Rh    0.00000    0.01729    0.49344
  7 Rh    0.11093   -0.06405    0.32934
  8 Rh   -0.11093   -0.06405    0.32934
  9 Rh    0.00000   -0.08454   -0.15191
 10 Rh    0.00278    0.00161    0.00800
 11 Rh   -0.00278    0.00161    0.00800
 12 Rh    0.02524   -0.01457    0.05404
 13 Rh   -0.00000   -0.00321    0.00800
 14 Rh   -0.02524   -0.01457    0.05404
 15 Rh    0.07321    0.04227   -0.15191
 16 Rh   -0.07321    0.04227   -0.15191
 17 Rh    0.00000    0.02915    0.05404
 18 Rh    0.00000    0.00000    2.35290
 19 Rh    0.28704   -0.01011   -0.52683
 20 Rh   -0.28704   -0.01011   -0.52683
 21 Rh    0.13476    0.25364   -0.52683
 22 Rh    0.00000    0.00000   -0.45453
 23 Rh   -0.13476    0.25364   -0.52683
 24 Rh   -0.15227   -0.24352   -0.52683
 25 Rh    0.15227   -0.24352   -0.52683
 26 Rh    0.00000    0.00000   -0.41381
 27 O     0.00000    0.00000    0.52134
 28 C     0.00000   -0.00000   -2.37008

System changes: positions 

Initializing position-dependent things.

Density initialized from wave functions
                                           
                                           
                                           
                                           
                                           
                                           
                                           
       O                                   
                Rh     Rh     Rh           
       C                                   
            Rh   RRh    RRh    Rh          
       Rh    RRh   RRh    Rh               
                                           
        Rh     Rh   RRh    Rh    Rh        
                                           
                Rh    Rh     Rh            
           Rh    Rh     Rh                 
                                           
                                           
                                           
                                           

Positions:
   0 Rh     1.356137    0.782966    6.049692    ( 0.0000,  0.0000,  0.0000)
   1 Rh     4.072935    0.780057    6.045088    ( 0.0000,  0.0000,  0.0000)
   2 Rh     6.789733    0.782966    6.049692    ( 0.0000,  0.0000,  0.0000)
   3 Rh     2.712016    3.137237    6.045088    ( 0.0000,  0.0000,  0.0000)
   4 Rh     5.433854    3.137237    6.045088    ( 0.0000,  0.0000,  0.0000)
   5 Rh     8.145870    3.148246    6.033166    ( 0.0000,  0.0000,  0.0000)
   6 Rh     4.072935    5.488598    6.049692    ( 0.0000,  0.0000,  0.0000)
   7 Rh     6.799396    5.480407    6.033166    ( 0.0000,  0.0000,  0.0000)
   8 Rh     9.492344    5.480407    6.033166    ( 0.0000,  0.0000,  0.0000)
   9 Rh    -0.000000    1.559160    8.201727    ( 0.0000,  0.0000,  0.0000)
  10 Rh     2.715570    1.567835    8.217830    ( 0.0000,  0.0000,  0.0000)
  11 Rh     5.430300    1.567835    8.217830    ( 0.0000,  0.0000,  0.0000)
  12 Rh     1.360187    3.917716    8.222467    ( 0.0000,  0.0000,  0.0000)
  13 Rh     4.072935    3.918860    8.217830    ( 0.0000,  0.0000,  0.0000)
  14 Rh     6.785683    3.917716    8.222467    ( 0.0000,  0.0000,  0.0000)
  15 Rh     2.722663    6.274950    8.201727    ( 0.0000,  0.0000,  0.0000)
  16 Rh     5.423208    6.274950    8.201727    ( 0.0000,  0.0000,  0.0000)
  17 Rh     8.145870    6.273629    8.222467    ( 0.0000,  0.0000,  0.0000)
  18 Rh     0.000000    0.000000   10.670997    ( 0.0000,  0.0000,  0.0000)
  19 Rh     2.744196   -0.001018   10.380997    ( 0.0000,  0.0000,  0.0000)
  20 Rh     5.401674   -0.001018   10.380997    ( 0.0000,  0.0000,  0.0000)
  21 Rh     1.371216    2.377052   10.380997    ( 0.0000,  0.0000,  0.0000)
  22 Rh     4.072935    2.351510   10.388278    ( 0.0000,  0.0000,  0.0000)
  23 Rh     6.774654    2.377052   10.380997    ( 0.0000,  0.0000,  0.0000)
  24 Rh     2.699955    4.678496   10.380997    ( 0.0000,  0.0000,  0.0000)
  25 Rh     5.445915    4.678496   10.380997    ( 0.0000,  0.0000,  0.0000)
  26 Rh     8.145870    4.703020   10.392377    ( 0.0000,  0.0000,  0.0000)
  27 O      0.000000    0.000000   13.636891    ( 0.0000,  0.0000,  0.0000)
  28 C      0.000000   -0.000000   12.195374    ( 0.0000,  0.0000,  0.0000)

Unit cell:
           periodic     x           y           z      points  spacing
  1. axis:    yes    8.145870    0.000000    0.000000    40     0.1764
  2. axis:    yes    4.072935    7.054530    0.000000    40     0.1764
  3. axis:    no     0.000000    0.000000   16.434050    81     0.2029

  Lengths:   8.145870   8.145870  16.434050
  Angles:   90.000000  90.000000  60.000000

Effective grid spacing dv^(1/3) = 0.1939

     iter     time        total  log10-change:
                         energy  eigst   dens
iter:   1 11:58:56  -219.836623  -0.41
iter:   2 11:59:01  -220.582129  -1.08  -1.41
iter:   3 11:59:06  -215.955884  -1.31  -1.34
iter:   4 11:59:10  -199.526234  -1.84  -1.41
iter:   5 11:59:14  -196.766819  -2.15  -1.87
iter:   6 11:59:19  -196.221196  -2.51  -2.14
iter:   7 11:59:23  -196.021122  -3.25  -2.18
iter:   8 11:59:28  -195.910701  -3.12  -2.27
iter:   9 11:59:32  -196.324077  -2.69  -2.30
iter:  10 11:59:36  -195.706878  -3.16  -2.10
iter:  11 11:59:41  -195.670069  -3.63  -2.65
iter:  12 11:59:45  -195.654853c -3.92  -2.78
iter:  13 11:59:50  -195.645238c -3.95  -2.90
iter:  14 11:59:54  -195.642934c -4.12  -3.08
iter:  15 11:59:58  -195.643983c -4.99  -3.19
iter:  16 12:00:03  -195.645102c -5.19  -3.19
iter:  17 12:00:07  -195.643858c -4.95  -3.11
iter:  18 12:00:11  -195.643725c -5.24  -3.44
iter:  19 12:00:16  -195.643273c -5.30  -3.61
iter:  20 12:00:20  -195.643312c -5.83  -3.76
iter:  21 12:00:25  -195.643298c -6.33  -3.83
iter:  22 12:00:29  -195.643388c -6.10  -3.85
iter:  23 12:00:33  -195.643275c -6.36  -3.91
iter:  24 12:00:38  -195.643265c -6.82  -4.19c
iter:  25 12:00:42  -195.643270c -6.77  -4.25c
iter:  26 12:00:46  -195.643272c -7.19  -4.33c
iter:  27 12:00:51  -195.643303c -6.93  -4.39c
iter:  28 12:00:55  -195.643283c -7.59c -4.38c

Converged after 28 iterations.

Dipole moment: (-0.020584, -0.011884, -0.899558) |e|*Ang

Energy contributions relative to reference atoms: (reference = -3516703.949422)

Kinetic:       -134.937549
Potential:      +59.495959
External:        +0.000000
XC:            -116.983541
Entropy (-ST):   -1.618529
Local:           -2.408887
--------------------------
Free energy:   -196.452548
Extrapolated:  -195.643283

Showing only first 2 kpts
 Kpt  Band  Eigenvalues  Occupancy
  0   205      1.44365    1.16878
  0   206      1.47520    1.01266
  0   207      1.49522    0.91276
  0   208      1.52245    0.78005

  1   205      1.38464    1.43451
  1   206      1.39291    1.40040
  1   207      1.43148    1.22724
  1   208      1.45593    1.10857


Fermi level: 1.47773

No gap

Forces in eV/Ang:
  0 Rh    0.01829    0.01056    0.06543
  1 Rh    0.00000    0.00957    0.10901
  2 Rh   -0.01829    0.01056    0.06543
  3 Rh    0.00829   -0.00479    0.10901
  4 Rh   -0.00829   -0.00479    0.10901
  5 Rh    0.00000    0.13104    0.07101
  6 Rh    0.00000   -0.02112    0.06543
  7 Rh    0.11349   -0.06552    0.07101
  8 Rh   -0.11349   -0.06552    0.07101
  9 Rh    0.00000   -0.20680    0.10348
 10 Rh   -0.05076   -0.02931   -0.02799
 11 Rh    0.05076   -0.02931   -0.02799
 12 Rh   -0.06560    0.03787   -0.12839
 13 Rh    0.00000    0.05861   -0.02799
 14 Rh    0.06560    0.03787   -0.12839
 15 Rh    0.17909    0.10340    0.10348
 16 Rh   -0.17909    0.10340    0.10348
 17 Rh    0.00000   -0.07575   -0.12839
 18 Rh    0.00000    0.00000  -14.23613
 19 Rh   -0.12809    0.00949   -0.06368
 20 Rh    0.12809    0.00949   -0.06368
 21 Rh   -0.05583   -0.11567   -0.06368
 22 Rh    0.00000    0.00000   -0.10948
 23 Rh    0.05583   -0.11567   -0.06368
 24 Rh    0.07226    0.10618   -0.06368
 25 Rh   -0.07226    0.10618   -0.06368
 26 Rh    0.00000    0.00000   -0.13880
 27 O    -0.00000    0.00000   -9.48967
 28 C     0.00000    0.00000   23.72501

System changes: positions 

Initializing position-dependent things.

Density initialized from wave functions
                                           
                                           
                                           
                                           
                                           
                                           
                                           
       O                                   
                Rh     Rh     Rh           
       C                                   
            Rh   RRh    RRh    Rh          
       Rh    RRh   RRh    Rh               
                                           
        Rh     Rh   RRh    Rh    Rh        
                                           
                Rh    Rh     Rh            
           Rh    Rh     Rh                 
                                           
                                           
                                           
                                           

Positions:
   0 Rh     1.355225    0.782440    6.092463    ( 0.0000,  0.0000,  0.0000)
   1 Rh     4.072935    0.777079    6.084840    ( 0.0000,  0.0000,  0.0000)
   2 Rh     6.790645    0.782440    6.092463    ( 0.0000,  0.0000,  0.0000)
   3 Rh     2.709438    3.138726    6.084840    ( 0.0000,  0.0000,  0.0000)
   4 Rh     5.436432    3.138726    6.084840    ( 0.0000,  0.0000,  0.0000)
   5 Rh     8.145870    3.161516    6.062233    ( 0.0000,  0.0000,  0.0000)
   6 Rh     4.072935    5.489651    6.092463    ( 0.0000,  0.0000,  0.0000)
   7 Rh     6.810888    5.473773    6.062233    ( 0.0000,  0.0000,  0.0000)
   8 Rh     9.480852    5.473773    6.062233    ( 0.0000,  0.0000,  0.0000)
   9 Rh    -0.000000    1.548117    8.190907    ( 0.0000,  0.0000,  0.0000)
  10 Rh     2.714840    1.567414    8.217972    ( 0.0000,  0.0000,  0.0000)
  11 Rh     5.431030    1.567414    8.217972    ( 0.0000,  0.0000,  0.0000)
  12 Rh     1.361065    3.917209    8.224576    ( 0.0000,  0.0000,  0.0000)
  13 Rh     4.072935    3.919703    8.217972    ( 0.0000,  0.0000,  0.0000)
  14 Rh     6.784805    3.917209    8.224576    ( 0.0000,  0.0000,  0.0000)
  15 Rh     2.732226    6.280472    8.190907    ( 0.0000,  0.0000,  0.0000)
  16 Rh     5.413644    6.280472    8.190907    ( 0.0000,  0.0000,  0.0000)
  17 Rh     8.145870    6.274643    8.224576    ( 0.0000,  0.0000,  0.0000)
  18 Rh     0.000000    0.000000   10.598583    ( 0.0000,  0.0000,  0.0000)
  19 Rh     2.765920   -0.001689   10.335449    ( 0.0000,  0.0000,  0.0000)
  20 Rh     5.379950   -0.001689   10.335449    ( 0.0000,  0.0000,  0.0000)
  21 Rh     1.381497    2.396201   10.335449    ( 0.0000,  0.0000,  0.0000)
  22 Rh     4.072935    2.351510   10.347944    ( 0.0000,  0.0000,  0.0000)
  23 Rh     6.764373    2.396201   10.335449    ( 0.0000,  0.0000,  0.0000)
  24 Rh     2.688513    4.660018   10.335449    ( 0.0000,  0.0000,  0.0000)
  25 Rh     5.457358    4.660018   10.335449    ( 0.0000,  0.0000,  0.0000)
  26 Rh     8.145870    4.703020   10.354914    ( 0.0000,  0.0000,  0.0000)
  27 O      0.000000    0.000000   13.500497    ( 0.0000,  0.0000,  0.0000)
  28 C      0.000000   -0.000000   12.446598    ( 0.0000,  0.0000,  0.0000)

Unit cell:
           periodic     x           y           z      points  spacing
  1. axis:    yes    8.145870    0.000000    0.000000    40     0.1764
  2. axis:    yes    4.072935    7.054530    0.000000    40     0.1764
  3. axis:    no     0.000000    0.000000   16.434050    81     0.2029

  Lengths:   8.145870   8.145870  16.434050
  Angles:   90.000000  90.000000  60.000000

Effective grid spacing dv^(1/3) = 0.1939

     iter     time        total  log10-change:
                         energy  eigst   dens
iter:   1 12:01:01  -206.950495  -0.81
iter:   2 12:01:06  -202.026143  -1.78  -1.63
iter:   3 12:01:10  -203.163635  -2.13  -1.97
iter:   4 12:01:14  -201.146816  -2.19  -1.73
iter:   5 12:01:19  -199.157455  -1.88  -1.84
iter:   6 12:01:23  -198.688173  -2.64  -2.13
iter:   7 12:01:28  -198.474223  -2.99  -2.24
iter:   8 12:01:32  -198.336825  -3.22  -2.42
iter:   9 12:01:36  -198.256318  -2.98  -2.55
iter:  10 12:01:41  -198.231415c -3.55  -2.62
iter:  11 12:01:45  -198.215543c -4.23  -2.74
iter:  12 12:01:50  -198.208778c -4.60  -2.86
iter:  13 12:01:54  -198.206108c -4.12  -2.98
iter:  14 12:01:58  -198.205421c -4.65  -3.14
iter:  15 12:02:03  -198.205417c -4.99  -3.21
iter:  16 12:02:07  -198.204967c -5.36  -3.25
iter:  17 12:02:12  -198.205649c -5.52  -3.39
iter:  18 12:02:16  -198.204613c -4.88  -3.29
iter:  19 12:02:20  -198.204655c -5.83  -3.69
iter:  20 12:02:25  -198.204581c -6.23  -3.75
iter:  21 12:02:29  -198.204627c -5.81  -3.88
iter:  22 12:02:34  -198.204634c -6.44  -4.13c
iter:  23 12:02:38  -198.204642c -6.95  -4.05c
iter:  24 12:02:42  -198.204621c -7.00  -4.06c
iter:  25 12:02:47  -198.204621c -7.18  -4.22c
iter:  26 12:02:51  -198.204635c -7.09  -4.30c
iter:  27 12:02:56  -198.204628c -7.27  -4.41c
iter:  28 12:03:00  -198.204645c -7.13  -4.55c
iter:  29 12:03:04  -198.204631c -7.52c -4.53c

Converged after 29 iterations.

Dipole moment: (0.190077, 0.109741, 0.029202) |e|*Ang

Energy contributions relative to reference atoms: (reference = -3516703.949422)

Kinetic:       -100.740968
Potential:      +30.459732
External:        +0.000000
XC:            -124.915636
Entropy (-ST):   -1.559505
Local:           -2.228006
--------------------------
Free energy:   -198.984384
Extrapolated:  -198.204631

Showing only first 2 kpts
 Kpt  Band  Eigenvalues  Occupancy
  0   205      1.80157    1.27908
  0   206      1.82486    1.16858
  0   207      1.86564    0.96633
  0   208      1.91060    0.74712

  1   205      1.73915    1.53617
  1   206      1.74433    1.51747
  1   207      1.81551    1.21363
  1   208      1.83738    1.10720


Fermi level: 1.85890

No gap

Forces in eV/Ang:
  0 Rh    0.06788    0.03919   -0.43702
  1 Rh    0.00000    0.05238   -0.26376
  2 Rh   -0.06788    0.03919   -0.43702
  3 Rh    0.04537   -0.02619   -0.26376
  4 Rh   -0.04537   -0.02619   -0.26376
  5 Rh    0.00000   -0.04263   -0.15877
  6 Rh    0.00000   -0.07839   -0.43702
  7 Rh   -0.03692    0.02131   -0.15877
  8 Rh    0.03692    0.02131   -0.15877
  9 Rh    0.00000   -0.02895    0.49663
 10 Rh   -0.04069   -0.02349   -0.06245
 11 Rh    0.04069   -0.02349   -0.06245
 12 Rh   -0.12765    0.07370   -0.28062
 13 Rh    0.00000    0.04698   -0.06245
 14 Rh    0.12765    0.07370   -0.28062
 15 Rh    0.02507    0.01447    0.49663
 16 Rh   -0.02507    0.01447    0.49663
 17 Rh    0.00000   -0.14740   -0.28062
 18 Rh    0.00000    0.00000   -0.44146
 19 Rh   -0.54953   -0.01292    0.32722
 20 Rh    0.54953   -0.01292    0.32722
 21 Rh   -0.28596   -0.46945    0.32722
 22 Rh    0.00000    0.00000    0.26844
 23 Rh    0.28596   -0.46945    0.32722
 24 Rh    0.26358    0.48237    0.32722
 25 Rh   -0.26358    0.48237    0.32722
 26 Rh   -0.00000    0.00000    0.20299
 27 O     0.00000    0.00000   15.76833
 28 C     0.00000    0.00000  -15.57040

System changes: positions 

Initializing position-dependent things.

Density initialized from wave functions
                                           
                                           
                                           
                                           
                                           
                                           
                                           
       O                                   
                                           
       C        Rh     Rh     Rh           
            Rh   RRh    RRh    Rh          
       Rh     Rh    Rh                     
             Rh    Rh     Rh               
        Rh     Rh   RRh    Rh    Rh        
                                           
                Rh    Rh     Rh            
           Rh    Rh     Rh                 
                                           
                                           
                                           
                                           

Positions:
   0 Rh     1.355997    0.782885    6.122972    ( 0.0000,  0.0000,  0.0000)
   1 Rh     4.072935    0.775506    6.116655    ( 0.0000,  0.0000,  0.0000)
   2 Rh     6.789873    0.782885    6.122972    ( 0.0000,  0.0000,  0.0000)
   3 Rh     2.708075    3.139512    6.116655    ( 0.0000,  0.0000,  0.0000)
   4 Rh     5.437795    3.139512    6.116655    ( 0.0000,  0.0000,  0.0000)
   5 Rh     8.145870    3.173435    6.086276    ( 0.0000,  0.0000,  0.0000)
   6 Rh     4.072935    5.488760    6.122972    ( 0.0000,  0.0000,  0.0000)
   7 Rh     6.821210    5.467813    6.086276    ( 0.0000,  0.0000,  0.0000)
   8 Rh     9.470530    5.467813    6.086276    ( 0.0000,  0.0000,  0.0000)
   9 Rh    -0.000000    1.536447    8.192547    ( 0.0000,  0.0000,  0.0000)
  10 Rh     2.713067    1.566390    8.216571    ( 0.0000,  0.0000,  0.0000)
  11 Rh     5.432803    1.566390    8.216571    ( 0.0000,  0.0000,  0.0000)
  12 Rh     1.358741    3.918551    8.219677    ( 0.0000,  0.0000,  0.0000)
  13 Rh     4.072935    3.921750    8.216571    ( 0.0000,  0.0000,  0.0000)
  14 Rh     6.787129    3.918551    8.219677    ( 0.0000,  0.0000,  0.0000)
  15 Rh     2.742333    6.286307    8.192547    ( 0.0000,  0.0000,  0.0000)
  16 Rh     5.403537    6.286307    8.192547    ( 0.0000,  0.0000,  0.0000)
  17 Rh     8.145870    6.271960    8.219677    ( 0.0000,  0.0000,  0.0000)
  18 Rh     0.000000    0.000000   10.484508    ( 0.0000,  0.0000,  0.0000)
  19 Rh     2.773331   -0.002606   10.299732    ( 0.0000,  0.0000,  0.0000)
  20 Rh     5.372539   -0.002606   10.299732    ( 0.0000,  0.0000,  0.0000)
  21 Rh     1.384409    2.403078   10.299732    ( 0.0000,  0.0000,  0.0000)
  22 Rh     4.072935    2.351510   10.315686    ( 0.0000,  0.0000,  0.0000)
  23 Rh     6.761461    2.403078   10.299732    ( 0.0000,  0.0000,  0.0000)
  24 Rh     2.684013    4.654058   10.299732    ( 0.0000,  0.0000,  0.0000)
  25 Rh     5.461857    4.654058   10.299732    ( 0.0000,  0.0000,  0.0000)
  26 Rh     8.145870    4.703020   10.323772    ( 0.0000,  0.0000,  0.0000)
  27 O      0.000000    0.000000   13.717797    ( 0.0000,  0.0000,  0.0000)
  28 C      0.000000   -0.000000   12.377921    ( 0.0000,  0.0000,  0.0000)

Unit cell:
           periodic     x           y           z      points  spacing
  1. axis:    yes    8.145870    0.000000    0.000000    40     0.1764
  2. axis:    yes    4.072935    7.054530    0.000000    40     0.1764
  3. axis:    no     0.000000    0.000000   16.434050    81     0.2029

  Lengths:   8.145870   8.145870  16.434050
  Angles:   90.000000  90.000000  60.000000

Effective grid spacing dv^(1/3) = 0.1939

     iter     time        total  log10-change:
                         energy  eigst   dens
iter:   1 12:03:10  -257.355336  -0.10
iter:   2 12:03:15  -250.549573  -0.75  -1.23
iter:   3 12:03:19  -219.904137  -1.07  -1.19
iter:   4 12:03:23  -201.254434  -1.56  -1.38
iter:   5 12:03:28  -198.204402  -2.11  -1.74
iter:   6 12:03:32  -198.048129  -3.12  -2.20
iter:   7 12:03:37  -197.951138  -2.37  -2.27
iter:   8 12:03:41  -197.780917  -2.96  -2.42
iter:   9 12:03:45  -197.647248  -3.28  -2.55
iter:  10 12:03:50  -197.637083c -3.74  -2.72
iter:  11 12:03:54  -197.647619c -3.87  -2.71
iter:  12 12:03:59  -197.601682c -4.03  -2.63
iter:  13 12:04:03  -197.600008c -4.72  -3.09
iter:  14 12:04:08  -197.599905c -5.47  -3.20
iter:  15 12:04:12  -197.599834c -5.20  -3.24
iter:  16 12:04:17  -197.600758c -5.16  -3.43
iter:  17 12:04:21  -197.600388c -5.59  -3.43
iter:  18 12:04:25  -197.599912c -5.88  -3.42
iter:  19 12:04:30  -197.599957c -5.86  -3.68
iter:  20 12:04:34  -197.599947c -6.31  -3.76
iter:  21 12:04:39  -197.599963c -6.41  -3.86
iter:  22 12:04:43  -197.599970c -6.47  -3.96
iter:  23 12:04:47  -197.600077c -6.64  -3.98
iter:  24 12:04:52  -197.600037c -6.77  -3.95
iter:  25 12:04:56  -197.600028c -6.93  -4.10c
