
  ___ ___ ___ _ _ _  
 |   |   |_  | | | | 
 | | | | | . | | | | 
 |__ |  _|___|_____|  22.8.0
 |___|_|             

User:   gotols@vera57-1
Date:   Thu Mar  9 17:13:01 2023
Arch:   x86_64
Pid:    2530098
CWD:    /cephyr/users/gotols/Vera/TIF320-Computational-materials-and-molecular-physics-Assignments
Python: 3.10.4
gpaw:   /apps/Arch/software/GPAW/22.8.0-foss-2022a/lib/python3.10/site-packages/gpaw
_gpaw:  /apps/Arch/software/GPAW/22.8.0-foss-2022a/lib/python3.10/site-packages/
        _gpaw.cpython-310-x86_64-linux-gnu.so
ase:    /apps/Arch/software/ASE/3.22.1-foss-2022a/lib/python3.10/site-packages/ase (version 3.22.1)
numpy:  /apps/Arch/software/SciPy-bundle/2022.05-foss-2022a/lib/python3.10/site-packages/numpy (version 1.22.3)
scipy:  /apps/Arch/software/SciPy-bundle/2022.05-foss-2022a/lib/python3.10/site-packages/scipy (version 1.8.1)
libxc:  5.2.3
units:  Angstrom and eV
cores: 16
OpenMP: False
OMP_NUM_THREADS: 1

Input parameters:
  kpts: [4 4 1]
  mode: {ecut: 450.00000000000006,
         name: pw}
  xc: PBE

System changes: positions, numbers, cell, pbc, initial_charges, initial_magmoms 

Initialize ...

species:
  Au:
    name: Gold
    id: b12133f335f6ca0d89c4b1ccaa844e9a
    Z: 79.0
    valence: 11
    core: 68
    charge: 0.0
    file: /apps/Common/software/GPAW-setups/0.9.20000/Au.PBE.gz
    compensation charges: {type: gauss,
                           rc: 0.42,
                           lmax: 2}
    cutoffs: {filter: 2.33,
              core: 2.81}
    valence states:
      #              energy  rcut
      - 6s(1.00)    -5.728   1.323
      - 6p(0.00)    -0.775   1.323
      - 5d(10.00)    -6.891   1.323
      -  s          21.484   1.323
      -  p          26.436   1.323
      -  d          20.321   1.323
  
    # Using partial waves for Au as LCAO basis

  O:
    name: Oxygen
    id: 32ecd46bf208036f09c70b0ec9a88b78
    Z: 8.0
    valence: 6
    core: 2
    charge: 0.0
    file: /apps/Common/software/GPAW-setups/0.9.20000/O.PBE.gz
    compensation charges: {type: gauss,
                           rc: 0.21,
                           lmax: 2}
    cutoffs: {filter: 1.17,
              core: 0.83}
    valence states:
      #              energy  rcut
      - 2s(2.00)   -23.961   0.688
      - 2p(4.00)    -9.029   0.598
      -  s           3.251   0.688
      -  p          18.182   0.598
      -  d           0.000   0.619
  
    # Using partial waves for O as LCAO basis

Reference energy: -13950194.172252  # eV

Spin-paired calculation

Convergence criteria:
 Maximum [total energy] change in last 3 cyles: 0.0005 eV / electron
 Maximum integral of absolute [dens]ity change: 0.0001 electrons / valence electron
 Maximum integral of absolute [eigenst]ate change: 4e-08 eV^2 / valence electron
 Maximum number of scf [iter]ations: 333
 (Square brackets indicate name in SCF output, whereas a 'c' in
 the SCF output indicates the quantity has converged.)

Symmetries present (total): 2

  ( 1  0  0)  ( 0  1  0)
  ( 0  1  0)  ( 1  0  0)
  ( 0  0  1)  ( 0  0  1)

16 k-points: 4 x 4 x 1 Monkhorst-Pack grid
6 k-points in the irreducible part of the Brillouin zone
       k-points in crystal coordinates                weights
   0:     0.12500000   -0.12500000    0.00000000          2/16
   1:     0.12500000    0.12500000    0.00000000          2/16
   2:     0.37500000   -0.37500000    0.00000000          2/16
   3:     0.37500000   -0.12500000    0.00000000          4/16
   4:     0.37500000    0.12500000    0.00000000          4/16
   5:     0.37500000    0.37500000    0.00000000          2/16

Wave functions: Plane wave expansion
  Cutoff energy: 450.000 eV
  Number of coefficients (min, max): 24769, 24813
  Pulay-stress correction: 0.000000 eV/Ang^3 (de/decut=0.000000)
  Using FFTW library
  ScaLapack parameters: grid=1x1, blocksize=None
  Wavefunction extrapolation:
    Improved wavefunction reuse through dual PAW basis 

Occupation numbers: Fermi-Dirac:
  width: 0.1000  # eV
 

Eigensolver
   Davidson(niter=2) 

Densities:
  Coarse grid: 45*45*84 grid
  Fine grid: 90*90*168 grid
  Total Charge: 0.000000 

Density mixing:
  Method: separate
  Backend: pulay
  Linear mixing parameter: 0.05
  old densities: 5
  Damping of long wavelength oscillations: 50 

Hamiltonian:
  XC and Coulomb potentials evaluated on a 90*90*168 grid
  Using the PBE Exchange-Correlation functional
  External potential:
    NoExternalPotential
 

XC parameters: PBE with 2 nearest neighbor stencil

Memory estimate:
  Process memory now: 1101.42 MiB
  Calculator: 310.60 MiB
    Density: 10.04 MiB
      Arrays: 4.23 MiB
      Localized functions: 4.11 MiB
      Mixer: 1.70 MiB
    Hamiltonian: 2.87 MiB
      Arrays: 2.77 MiB
      XC: 0.00 MiB
      Poisson: 0.00 MiB
      vbar: 0.10 MiB
    Wavefunctions: 297.70 MiB
      Arrays psit_nG: 211.27 MiB
      Eigensolver: 77.60 MiB
      Projections: 0.53 MiB
      Projectors: 1.42 MiB
      PW-descriptor: 6.88 MiB

Total number of cores used: 16
Parallelization over k-points: 2
Domain decomposition: 2 x 2 x 2

Number of atoms: 28
Number of atomic orbitals: 247
Number of bands in calculation: 186
Number of valence electrons: 303
Bands to converge: occupied

... initialized

Initializing position-dependent things.

Density initialized from atomic densities
Creating initial wave functions:
  186 bands from LCAO basis set

                                              
                                              
                                              
                                              
                                              
                                              
                                              
               O  Au     Au     Au            
                                              
            Au     AAu    AAu    Au           
                                              
       Au     Au     AAu    Au                
        Au     Au     AAu    Au     Au        
                                              
                 Au     Au     Au             
                                              
           Au      Au     Au                  
                                              
                                              
                                              
                                              

Positions:
   0 Au     1.476793    0.852627    6.000000    ( 0.0000,  0.0000,  0.0000)
   1 Au     4.430378    0.852627    6.000000    ( 0.0000,  0.0000,  0.0000)
   2 Au     7.383963    0.852627    6.000000    ( 0.0000,  0.0000,  0.0000)
   3 Au     2.953585    3.410506    6.000000    ( 0.0000,  0.0000,  0.0000)
   4 Au     5.907170    3.410506    6.000000    ( 0.0000,  0.0000,  0.0000)
   5 Au     8.860755    3.410506    6.000000    ( 0.0000,  0.0000,  0.0000)
   6 Au     4.430378    5.968386    6.000000    ( 0.0000,  0.0000,  0.0000)
   7 Au     7.383963    5.968386    6.000000    ( 0.0000,  0.0000,  0.0000)
   8 Au    10.337548    5.968386    6.000000    ( 0.0000,  0.0000,  0.0000)
   9 Au    -0.000000    1.705253    8.411592    ( 0.0000,  0.0000,  0.0000)
  10 Au     2.953585    1.705253    8.411592    ( 0.0000,  0.0000,  0.0000)
  11 Au     5.907170    1.705253    8.411592    ( 0.0000,  0.0000,  0.0000)
  12 Au     1.476793    4.263133    8.411592    ( 0.0000,  0.0000,  0.0000)
  13 Au     4.430378    4.263133    8.411592    ( 0.0000,  0.0000,  0.0000)
  14 Au     7.383963    4.263133    8.411592    ( 0.0000,  0.0000,  0.0000)
  15 Au     2.953585    6.821012    8.411592    ( 0.0000,  0.0000,  0.0000)
  16 Au     5.907170    6.821012    8.411592    ( 0.0000,  0.0000,  0.0000)
  17 Au     8.860755    6.821012    8.411592    ( 0.0000,  0.0000,  0.0000)
  18 Au     0.000000    0.000000   10.823184    ( 0.0000,  0.0000,  0.0000)
  19 Au     2.953585    0.000000   10.823184    ( 0.0000,  0.0000,  0.0000)
  20 Au     5.907170    0.000000   10.823184    ( 0.0000,  0.0000,  0.0000)
  21 Au     1.476793    2.557880   10.823184    ( 0.0000,  0.0000,  0.0000)
  22 Au     4.430378    2.557880   10.823184    ( 0.0000,  0.0000,  0.0000)
  23 Au     7.383963    2.557880   10.823184    ( 0.0000,  0.0000,  0.0000)
  24 Au     2.953585    5.115759   10.823184    ( 0.0000,  0.0000,  0.0000)
  25 Au     5.907170    5.115759   10.823184    ( 0.0000,  0.0000,  0.0000)
  26 Au     8.860755    5.115759   10.823184    ( 0.0000,  0.0000,  0.0000)
  27 O      2.953585    1.705253   12.823184    ( 0.0000,  0.0000,  0.0000)

Unit cell:
           periodic     x           y           z      points  spacing
  1. axis:    yes    8.860755    0.000000    0.000000    45     0.1705
  2. axis:    yes    4.430378    7.673639    0.000000    45     0.1705
  3. axis:    no     0.000000    0.000000   16.823184    84     0.2003

  Lengths:   8.860755   8.860755  16.823184
  Angles:   90.000000  90.000000  60.000000

Effective grid spacing dv^(1/3) = 0.1888

     iter     time        total  log10-change:
                         energy  eigst   dens
iter:   1 17:13:15   -93.210623
iter:   2 17:13:20   -89.241784  -1.75  -1.32
iter:   3 17:13:25   -86.676610  -1.68  -1.35
iter:   4 17:13:31   -86.654517  -1.81  -1.42
iter:   5 17:13:36   -82.620615  -1.71  -1.42
iter:   6 17:13:41   -82.002734  -1.93  -1.71
iter:   7 17:13:47   -82.004160  -3.25  -2.00
iter:   8 17:13:52   -82.123916c -2.95  -1.99
iter:   9 17:13:57   -81.806043  -2.16  -1.98
iter:  10 17:14:02   -81.879196  -3.66  -2.40
iter:  11 17:14:08   -81.675640  -3.32  -2.33
iter:  12 17:14:13   -81.654163  -3.40  -2.51
iter:  13 17:14:18   -81.643285c -3.62  -2.72
iter:  14 17:14:24   -81.642082c -4.75  -2.85
iter:  15 17:14:29   -81.635631c -4.41  -3.01
iter:  16 17:14:34   -81.636668c -4.80  -3.04
iter:  17 17:14:40   -81.636473c -5.21  -3.23
iter:  18 17:14:45   -81.635418c -4.65  -3.28
iter:  19 17:14:50   -81.635257c -5.68  -3.46
iter:  20 17:14:56   -81.634914c -5.27  -3.54
iter:  21 17:15:01   -81.635017c -6.29  -3.87
iter:  22 17:15:06   -81.635050c -6.75  -3.92
iter:  23 17:15:12   -81.635006c -6.81  -4.06c
iter:  24 17:15:17   -81.634996c -6.81  -4.23c
iter:  25 17:15:22   -81.634987c -7.36  -4.37c
iter:  26 17:15:27   -81.634982c -6.89  -4.46c
iter:  27 17:15:33   -81.634987c -7.55c -4.64c

Converged after 27 iterations.

Dipole moment: (0.735749, 0.424785, -0.716445) |e|*Ang

Energy contributions relative to reference atoms: (reference = -13950194.172252)

Kinetic:       -314.161611
Potential:     +254.766902
External:        +0.000000
XC:             -25.053376
Entropy (-ST):   -0.304536
Local:           +2.965366
--------------------------
Free energy:    -81.787255
Extrapolated:   -81.634987

Showing only first 2 kpts
 Kpt  Band  Eigenvalues  Occupancy
  0   149     -0.15906    1.99883
  0   150      0.02386    1.99275
  0   151      0.18548    1.96404
  0   152      0.29192    1.89920

  1   149     -0.60587    1.99999
  1   150     -0.42397    1.99992
  1   151      0.16115    1.97170
  1   152      0.18003    1.96592


Fermi level: 0.58552

No gap

Forces in eV/Ang:
  0 Au   -0.04528   -0.02614   -0.09223
  1 Au    0.02997   -0.00775   -0.08659
  2 Au    0.00973    0.02843    0.00471
  3 Au    0.00827    0.02983   -0.08659
  4 Au   -0.02506   -0.01447   -0.04246
  5 Au    0.00875   -0.01520   -0.04114
  6 Au    0.02949   -0.00579    0.00471
  7 Au   -0.00878    0.01518   -0.04114
  8 Au   -0.02634   -0.01521    0.00309
  9 Au    0.07495    0.03785    0.08756
 10 Au    0.00258    0.00149   -0.02056
 11 Au   -0.07405    0.04234    0.07761
 12 Au    0.00033   -0.08270    0.08709
 13 Au   -0.00036   -0.08530    0.07761
 14 Au   -0.00045   -0.00026    0.00291
 15 Au    0.00698    0.00403    0.01605
 16 Au    0.07025    0.04598    0.08756
 17 Au   -0.07145    0.04164    0.08709
 18 Au   -0.11830   -0.06830    0.00745
 19 Au   -0.00779    0.24695    0.80111
 20 Au    0.12712   -0.06799    0.02106
 21 Au    0.20997   -0.13022    0.80111
 22 Au   -0.20122   -0.11617    0.79561
 23 Au   -0.00120    0.03699   -0.01135
 24 Au    0.00468    0.14409    0.02106
 25 Au    0.03143   -0.01954   -0.01135
 26 Au   -0.02864   -0.01653   -0.00842
 27 O    -0.00609   -0.00351   -2.56659

System changes: positions 

Initializing position-dependent things.

Density initialized from wave functions
                                              
                                              
                                              
                                              
                                              
                                              
                                              
                O Au     Au     Au            
             Au     Au                        
                   Au     AAu    Au           
       Au     Au     AAu    Au                
                                              
        Au      Au    AAu    Au     Au        
                                              
                 Au     Au     Au             
                                              
           Au      Au     Au                  
                                              
                                              
                                              
                                              

Positions:
   0 Au     1.470710    0.849115    5.987612    ( 0.0000,  0.0000,  0.0000)
   1 Au     4.434403    0.851586    5.988370    ( 0.0000,  0.0000,  0.0000)
   2 Au     7.385269    0.856445    6.000633    ( 0.0000,  0.0000,  0.0000)
   3 Au     2.954696    3.414513    5.988370    ( 0.0000,  0.0000,  0.0000)
   4 Au     5.903804    3.408563    5.994297    ( 0.0000,  0.0000,  0.0000)
   5 Au     8.861931    3.408465    5.994474    ( 0.0000,  0.0000,  0.0000)
   6 Au     4.434338    5.967608    6.000633    ( 0.0000,  0.0000,  0.0000)
   7 Au     7.382783    5.970425    5.994474    ( 0.0000,  0.0000,  0.0000)
   8 Au    10.334009    5.966343    6.000415    ( 0.0000,  0.0000,  0.0000)
   9 Au     0.010067    1.710337    8.423353    ( 0.0000,  0.0000,  0.0000)
  10 Au     2.953932    1.705453    8.408831    ( 0.0000,  0.0000,  0.0000)
  11 Au     5.897224    1.710940    8.422016    ( 0.0000,  0.0000,  0.0000)
  12 Au     1.476837    4.252025    8.423289    ( 0.0000,  0.0000,  0.0000)
  13 Au     4.430329    4.251676    8.422016    ( 0.0000,  0.0000,  0.0000)
  14 Au     7.383902    4.263098    8.411982    ( 0.0000,  0.0000,  0.0000)
  15 Au     2.954523    6.821554    8.413748    ( 0.0000,  0.0000,  0.0000)
  16 Au     5.916606    6.827189    8.423353    ( 0.0000,  0.0000,  0.0000)
  17 Au     8.851157    6.826605    8.423289    ( 0.0000,  0.0000,  0.0000)
  18 Au    -0.015889   -0.009174   10.824184    ( 0.0000,  0.0000,  0.0000)
  19 Au     2.952539    0.033169   10.930788    ( 0.0000,  0.0000,  0.0000)
  20 Au     5.924245   -0.009133   10.826013    ( 0.0000,  0.0000,  0.0000)
  21 Au     1.504995    2.540389   10.930788    ( 0.0000,  0.0000,  0.0000)
  22 Au     4.403351    2.542276   10.930048    ( 0.0000,  0.0000,  0.0000)
  23 Au     7.383801    2.562847   10.821659    ( 0.0000,  0.0000,  0.0000)
  24 Au     2.954213    5.135113   10.826013    ( 0.0000,  0.0000,  0.0000)
  25 Au     5.911391    5.113135   10.821659    ( 0.0000,  0.0000,  0.0000)
  26 Au     8.856909    5.113539   10.822054    ( 0.0000,  0.0000,  0.0000)
  27 O      2.952768    1.704781   12.478447    ( 0.0000,  0.0000,  0.0000)

Unit cell:
           periodic     x           y           z      points  spacing
  1. axis:    yes    8.860755    0.000000    0.000000    45     0.1705
  2. axis:    yes    4.430378    7.673639    0.000000    45     0.1705
  3. axis:    no     0.000000    0.000000   16.823184    84     0.2003

  Lengths:   8.860755   8.860755  16.823184
  Angles:   90.000000  90.000000  60.000000

Effective grid spacing dv^(1/3) = 0.1888

     iter     time        total  log10-change:
                         energy  eigst   dens
iter:   1 17:15:40   -89.817992  -1.48
iter:   2 17:15:45   -83.048842  -1.78  -1.58
iter:   3 17:15:51   -82.845833  -3.11  -2.12
iter:   4 17:15:56   -82.680253  -2.65  -2.28
iter:   5 17:16:01   -82.649140  -2.64  -2.48
iter:   6 17:16:07   -82.600452c -3.46  -2.60
iter:   7 17:16:12   -82.593306c -4.11  -2.89
iter:   8 17:16:17   -82.585921c -4.14  -2.95
iter:   9 17:16:23   -82.585719c -4.80  -3.17
iter:  10 17:16:28   -82.585080c -4.48  -3.26
iter:  11 17:16:33   -82.584891c -5.45  -3.45
iter:  12 17:16:38   -82.584605c -5.41  -3.53
iter:  13 17:16:44   -82.584520c -5.79  -3.69
iter:  14 17:16:49   -82.584514c -5.84  -3.76
iter:  15 17:16:54   -82.584480c -6.18  -3.84
iter:  16 17:17:00   -82.584447c -6.41  -3.98
iter:  17 17:17:05   -82.584449c -6.84  -4.13c
iter:  18 17:17:10   -82.584470c -6.86  -4.24c
iter:  19 17:17:16   -82.584469c -7.62c -4.58c

Converged after 19 iterations.

Dipole moment: (-0.384608, -0.222053, -0.405416) |e|*Ang

Energy contributions relative to reference atoms: (reference = -13950194.172252)

Kinetic:       -313.715903
Potential:     +254.243669
External:        +0.000000
XC:             -25.970109
Entropy (-ST):   -0.276025
Local:           +2.995887
--------------------------
Free energy:    -82.722482
Extrapolated:   -82.584469

Showing only first 2 kpts
 Kpt  Band  Eigenvalues  Occupancy
  0   149     -0.22054    1.99979
  0   150     -0.01083    1.99830
  0   151      0.24089    1.97915
  0   152      0.38116    1.91785

  1   149     -0.54035    1.99999
  1   150     -0.36662    1.99995
  1   151      0.14112    1.99226
  1   152      0.14926    1.99161


Fermi level: 0.69621

No gap

Forces in eV/Ang:
  0 Au   -0.03419   -0.01974   -0.03506
  1 Au    0.02767   -0.01678   -0.03008
  2 Au    0.00231    0.02244    0.03854
  3 Au   -0.00069    0.03235   -0.03008
  4 Au   -0.02506   -0.01447   -0.00756
  5 Au    0.01825   -0.01405   -0.00504
  6 Au    0.02059   -0.00922    0.03854
  7 Au   -0.00304    0.02282   -0.00504
  8 Au   -0.02189   -0.01264    0.04007
  9 Au    0.10540    0.04988    0.13698
 10 Au   -0.00033   -0.00019    0.07396
 11 Au   -0.09948    0.04149    0.13081
 12 Au    0.01326   -0.11083    0.13407
 13 Au   -0.01381   -0.10690    0.13081
 14 Au    0.00050    0.00029   -0.04460
 15 Au   -0.00048   -0.00028   -0.07011
 16 Au    0.09590    0.06634    0.13698
 17 Au   -0.08935    0.06690    0.13407
 18 Au   -0.07457   -0.04305   -0.01393
 19 Au    0.00245   -0.53068    0.19275
 20 Au    0.07778   -0.04194   -0.00899
 21 Au   -0.45836    0.26746    0.19275
 22 Au    0.47222    0.27264    0.17880
 23 Au   -0.00365    0.02711   -0.04202
 24 Au    0.00257    0.08833   -0.00899
 25 Au    0.02165   -0.01672   -0.04202
 26 Au   -0.01907   -0.01101   -0.03787
 27 O    -0.01556   -0.00899   -1.25922

System changes: positions 

Initializing position-dependent things.

Density initialized from wave functions
                                              
                                              
                                              
                                              
                                              
                                              
                                              
                O Au     Au     Au            
            Au      Au     Au                 
                   Au     Au     Au           
       Au     Au     AAu    Au                
                                              
        Au      Au    AAu    Au     Au        
                                              
                 Au     Au     Au             
                                              
           Au      Au     Au                  
                                              
                                              
                                              
                                              

Positions:
   0 Au     1.466068    0.846435    5.982990    ( 0.0000,  0.0000,  0.0000)
   1 Au     4.438180    0.849265    5.984427    ( 0.0000,  0.0000,  0.0000)
   2 Au     7.385563    0.859496    6.006005    ( 0.0000,  0.0000,  0.0000)
   3 Au     2.954575    3.418944    5.984427    ( 0.0000,  0.0000,  0.0000)
   4 Au     5.900377    3.406584    5.993368    ( 0.0000,  0.0000,  0.0000)
   5 Au     8.864454    3.406548    5.993894    ( 0.0000,  0.0000,  0.0000)
   6 Au     4.437127    5.966337    6.006005    ( 0.0000,  0.0000,  0.0000)
   7 Au     7.382384    5.973568    5.993894    ( 0.0000,  0.0000,  0.0000)
   8 Au    10.331029    5.964623    6.006005    ( 0.0000,  0.0000,  0.0000)
   9 Au     0.024571    1.717194    8.442233    ( 0.0000,  0.0000,  0.0000)
  10 Au     2.953878    1.705422    8.419229    ( 0.0000,  0.0000,  0.0000)
  11 Au     5.883545    1.716611    8.440063    ( 0.0000,  0.0000,  0.0000)
  12 Au     1.478690    4.236785    8.441763    ( 0.0000,  0.0000,  0.0000)
  13 Au     4.428401    4.236994    8.440063    ( 0.0000,  0.0000,  0.0000)
  14 Au     7.383974    4.263139    8.405741    ( 0.0000,  0.0000,  0.0000)
  15 Au     2.954434    6.821503    8.403902    ( 0.0000,  0.0000,  0.0000)
  16 Au     5.929797    6.836322    8.442233    ( 0.0000,  0.0000,  0.0000)
  17 Au     8.838886    6.835829    8.441763    ( 0.0000,  0.0000,  0.0000)
  18 Au    -0.025955   -0.014985   10.822216    ( 0.0000,  0.0000,  0.0000)
  19 Au     2.952905   -0.041737   10.955314    ( 0.0000,  0.0000,  0.0000)
  20 Au     5.934732   -0.014789   10.824694    ( 0.0000,  0.0000,  0.0000)
  21 Au     1.440307    2.578159   10.955314    ( 0.0000,  0.0000,  0.0000)
  22 Au     4.469949    2.580726   10.952642    ( 0.0000,  0.0000,  0.0000)
  23 Au     7.383294    2.566524   10.815821    ( 0.0000,  0.0000,  0.0000)
  24 Au     2.954558    5.147023   10.824694    ( 0.0000,  0.0000,  0.0000)
  25 Au     5.914322    5.110858   10.815821    ( 0.0000,  0.0000,  0.0000)
  26 Au     8.854329    5.112049   10.816787    ( 0.0000,  0.0000,  0.0000)
  27 O      2.950611    1.703536   12.310194    ( 0.0000,  0.0000,  0.0000)

Unit cell:
           periodic     x           y           z      points  spacing
  1. axis:    yes    8.860755    0.000000    0.000000    45     0.1705
  2. axis:    yes    4.430378    7.673639    0.000000    45     0.1705
  3. axis:    no     0.000000    0.000000   16.823184    84     0.2003

  Lengths:   8.860755   8.860755  16.823184
  Angles:   90.000000  90.000000  60.000000

Effective grid spacing dv^(1/3) = 0.1888

     iter     time        total  log10-change:
                         energy  eigst   dens
iter:   1 17:17:23   -84.791784  -1.81
iter:   2 17:17:28   -82.930078  -2.38  -1.81
iter:   3 17:17:34   -82.897848  -3.63  -2.50
iter:   4 17:17:39   -82.863190c -3.15  -2.59
iter:   5 17:17:44   -82.862148c -3.82  -2.84
iter:   6 17:17:50   -82.857729c -4.16  -2.96
iter:   7 17:17:55   -82.854192c -4.49  -3.14
iter:   8 17:18:00   -82.853519c -5.02  -3.32
iter:   9 17:18:06   -82.853355c -5.69  -3.46
iter:  10 17:18:11   -82.853287c -5.20  -3.56
iter:  11 17:18:16   -82.853213c -6.14  -3.81
iter:  12 17:18:21   -82.853190c -6.27  -4.02c
iter:  13 17:18:27   -82.853216c -6.13  -4.13c
iter:  14 17:18:32   -82.853179c -6.99  -4.22c
iter:  15 17:18:37   -82.853163c -7.07  -4.41c
iter:  16 17:18:43   -82.853161c -7.15  -4.54c
iter:  17 17:18:48   -82.853157c -7.59c -4.61c

Converged after 17 iterations.

Dipole moment: (6.320734, 3.649278, -0.314062) |e|*Ang

Energy contributions relative to reference atoms: (reference = -13950194.172252)

Kinetic:       -310.086909
Potential:     +250.947920
External:        +0.000000
XC:             -26.600039
Entropy (-ST):   -0.267495
Local:           +3.019619
--------------------------
Free energy:    -82.986904
Extrapolated:   -82.853157

Showing only first 2 kpts
 Kpt  Band  Eigenvalues  Occupancy
  0   149     -0.19780    1.99980
  0   150      0.00924    1.99839
  0   151      0.27173    1.97801
  0   152      0.40039    1.92262

  1   149     -0.51442    1.99999
  1   150     -0.35129    1.99996
  1   151      0.17257    1.99179
  1   152      0.17685    1.99143


Fermi level: 0.72166

No gap

Forces in eV/Ang:
  0 Au   -0.01487   -0.00858    0.01653
  1 Au    0.01122   -0.00852    0.01868
  2 Au    0.00050    0.03471    0.07227
  3 Au   -0.00177    0.01398    0.01868
  4 Au   -0.02648   -0.01529    0.02523
  5 Au    0.02136   -0.01330    0.02275
  6 Au    0.03031   -0.01692    0.07227
  7 Au   -0.00084    0.02515    0.02275
  8 Au   -0.03317   -0.01915    0.07027
  9 Au    0.01934   -0.01923    0.01998
 10 Au   -0.00008   -0.00004    0.10018
 11 Au   -0.01711   -0.02134    0.01419
 12 Au    0.02775   -0.00447    0.02138
 13 Au   -0.02704   -0.00415    0.01419
 14 Au    0.00135    0.00078   -0.10371
 15 Au    0.00093    0.00054   -0.07528
 16 Au   -0.00698    0.02637    0.01998
 17 Au    0.01001    0.02627    0.02138
 18 Au   -0.03049   -0.01761    0.00762
 19 Au    0.00403   -0.29412    0.05436
 20 Au    0.03428   -0.01959    0.01189
 21 Au   -0.25270    0.15055    0.05436
 22 Au    0.25245    0.14575    0.05589
 23 Au   -0.00078    0.01986   -0.00840
 24 Au    0.00017    0.03949    0.01189
 25 Au    0.01681   -0.01060   -0.00840
 26 Au   -0.01210   -0.00698   -0.00813
 27 O    -0.00585   -0.00338   -0.52743

System changes: positions 

Initializing position-dependent things.

Density initialized from wave functions
                                              
                                              
                                              
                                              
                                              
                                              
                  Au     Au     Au            
                O                             
            Au     AAu    AAu    Au           
              Au                              
       Au     Au     AAu    Au                
        Au      Au    AAu    Au     Au        
                                              
                 Au     Au     Au             
                                              
           Au      Au     Au                  
                                              
                                              
                                              
                                              

Positions:
   0 Au     1.461720    0.843924    5.984636    ( 0.0000,  0.0000,  0.0000)
   1 Au     4.441569    0.846854    5.986708    ( 0.0000,  0.0000,  0.0000)
   2 Au     7.385741    0.867031    6.021463    ( 0.0000,  0.0000,  0.0000)
   3 Au     2.954182    3.423085    5.986708    ( 0.0000,  0.0000,  0.0000)
   4 Au     5.894243    3.403043    5.997858    ( 0.0000,  0.0000,  0.0000)
   5 Au     8.869341    3.403403    5.998041    ( 0.0000,  0.0000,  0.0000)
   6 Au     4.443741    5.962724    6.021463    ( 0.0000,  0.0000,  0.0000)
   7 Au     7.382104    5.979373    5.998041    ( 0.0000,  0.0000,  0.0000)
   8 Au    10.323803    5.960451    6.021170    ( 0.0000,  0.0000,  0.0000)
   9 Au     0.033223    1.715960    8.452543    ( 0.0000,  0.0000,  0.0000)
  10 Au     2.953839    1.705400    8.441773    ( 0.0000,  0.0000,  0.0000)
  11 Au     5.875605    1.714547    8.449011    ( 0.0000,  0.0000,  0.0000)
  12 Au     1.484553    4.230675    8.452191    ( 0.0000,  0.0000,  0.0000)
  13 Au     4.422644    4.231149    8.449011    ( 0.0000,  0.0000,  0.0000)
  14 Au     7.384253    4.263300    8.384062    ( 0.0000,  0.0000,  0.0000)
  15 Au     2.954562    6.821576    8.386232    ( 0.0000,  0.0000,  0.0000)
  16 Au     5.933054    6.844431    8.452543    ( 0.0000,  0.0000,  0.0000)
  17 Au     8.836526    6.843963    8.452191    ( 0.0000,  0.0000,  0.0000)
  18 Au    -0.035012   -0.020214   10.822923    ( 0.0000,  0.0000,  0.0000)
  19 Au     2.953808   -0.124226   10.972510    ( 0.0000,  0.0000,  0.0000)
  20 Au     5.944630   -0.020336   10.826404    ( 0.0000,  0.0000,  0.0000)
  21 Au     1.369321    2.620186   10.972510    ( 0.0000,  0.0000,  0.0000)
  22 Au     4.541552    2.622066   10.969444    ( 0.0000,  0.0000,  0.0000)
  23 Au     7.382970    2.571480   10.812181    ( 0.0000,  0.0000,  0.0000)
  24 Au     2.954703    5.158369   10.826404    ( 0.0000,  0.0000,  0.0000)
  25 Au     5.918452    5.108099   10.812181    ( 0.0000,  0.0000,  0.0000)
  26 Au     8.851202    5.110244   10.813396    ( 0.0000,  0.0000,  0.0000)
  27 O      2.948756    1.702465   12.156787    ( 0.0000,  0.0000,  0.0000)

Unit cell:
           periodic     x           y           z      points  spacing
  1. axis:    yes    8.860755    0.000000    0.000000    45     0.1705
  2. axis:    yes    4.430378    7.673639    0.000000    45     0.1705
  3. axis:    no     0.000000    0.000000   16.823184    84     0.2003

  Lengths:   8.860755   8.860755  16.823184
  Angles:   90.000000  90.000000  60.000000

Effective grid spacing dv^(1/3) = 0.1888

     iter     time        total  log10-change:
                         energy  eigst   dens
iter:   1 17:18:55   -83.857379  -1.93
iter:   2 17:19:01   -83.018641  -2.72  -1.98
iter:   3 17:19:06   -82.991434  -3.69  -2.56
iter:   4 17:19:11   -82.966443c -3.23  -2.66
iter:   5 17:19:17   -82.967695c -3.96  -2.90
iter:   6 17:19:22   -82.962090c -3.97  -2.99
iter:   7 17:19:27   -82.960454c -5.04  -3.28
iter:   8 17:19:33   -82.959924c -5.30  -3.45
iter:   9 17:19:38   -82.959870c -5.95  -3.57
iter:  10 17:19:43   -82.959696c -5.37  -3.65
iter:  11 17:19:48   -82.959670c -6.28  -3.89
iter:  12 17:19:54   -82.959620c -6.47  -3.95
iter:  13 17:19:59   -82.959628c -6.71  -4.10c
iter:  14 17:20:04   -82.959630c -7.14  -4.18c
iter:  15 17:20:10   -82.959652c -6.53  -4.27c
iter:  16 17:20:15   -82.959635c -7.50c -4.55c

Converged after 16 iterations.

Dipole moment: (13.212639, 7.628321, -0.262250) |e|*Ang

Energy contributions relative to reference atoms: (reference = -13950194.172252)

Kinetic:       -303.853370
Potential:     +245.470374
External:        +0.000000
XC:             -27.489487
Entropy (-ST):   -0.262837
Local:           +3.044266
--------------------------
Free energy:    -83.091054
Extrapolated:   -82.959635

Showing only first 2 kpts
 Kpt  Band  Eigenvalues  Occupancy
  0   149     -0.16928    1.99975
  0   150      0.04413    1.99788
  0   151      0.30538    1.97144
  0   152      0.41422    1.91751

  1   149     -0.48234    1.99999
  1   150     -0.32327    1.99995
  1   151      0.21843    1.98793
  1   152      0.22290    1.98738


Fermi level: 0.72883

No gap

Forces in eV/Ang:
  0 Au    0.02103    0.01214    0.03561
  1 Au   -0.02203    0.00745    0.03560
  2 Au   -0.00218    0.02491    0.02510
  3 Au   -0.00456   -0.02281    0.03560
  4 Au   -0.02329   -0.01345    0.01490
  5 Au    0.02242   -0.01231    0.01144
  6 Au    0.02048   -0.01435    0.02510
  7 Au    0.00055    0.02557    0.01144
  8 Au   -0.02418   -0.01396    0.02542
  9 Au   -0.02787   -0.03198   -0.02880
 10 Au    0.00050    0.00029    0.06424
 11 Au    0.02634   -0.03124   -0.02808
 12 Au    0.01470    0.04127   -0.02722
 13 Au   -0.01389    0.03843   -0.02808
 14 Au    0.00178    0.00103   -0.04928
 15 Au   -0.00079   -0.00046    0.01718
 16 Au   -0.04163   -0.00815   -0.02880
 17 Au    0.04309   -0.00790   -0.02722
 18 Au    0.01864    0.01076    0.00583
 19 Au    0.00307   -0.01717    0.04002
 20 Au   -0.01309    0.01045    0.00720
 21 Au   -0.01334    0.01124    0.04002
 22 Au   -0.00225   -0.00130    0.05626
 23 Au    0.00224    0.02100   -0.02429
 24 Au    0.00250   -0.01656    0.00720
 25 Au    0.01931   -0.00856   -0.02429
 26 Au   -0.01661   -0.00959   -0.02564
 27 O     0.00904    0.00522   -0.12579

System changes: positions 

Initializing position-dependent things.

Density initialized from wave functions
                                              
                                              
                                              
                                              
                                              
                                              
                  Au     Au     Au            
                O                             
            Au     AAu    AAu    Au           
              Au                              
       Au     Au     AAu    Au                
        Au      Au    AAu    Au     Au        
                                              
                 Au     Au     Au             
                                              
           Au      Au     Au                  
                                              
                                              
                                              
                                              

Positions:
   0 Au     1.464421    0.845484    5.989182    ( 0.0000,  0.0000,  0.0000)
   1 Au     4.438697    0.847777    5.991286    ( 0.0000,  0.0000,  0.0000)
   2 Au     7.385450    0.870473    6.024868    ( 0.0000,  0.0000,  0.0000)
   3 Au     2.953545    3.420136    5.991286    ( 0.0000,  0.0000,  0.0000)
   4 Au     5.890939    3.401135    5.999715    ( 0.0000,  0.0000,  0.0000)
   5 Au     8.872500    3.401645    5.999458    ( 0.0000,  0.0000,  0.0000)
   6 Au     4.446577    5.960751    6.024868    ( 0.0000,  0.0000,  0.0000)
   7 Au     7.382161    5.982988    5.999458    ( 0.0000,  0.0000,  0.0000)
   8 Au    10.320455    5.958518    6.024650    ( 0.0000,  0.0000,  0.0000)
   9 Au     0.030269    1.712139    8.449779    ( 0.0000,  0.0000,  0.0000)
  10 Au     2.953904    1.705437    8.450827    ( 0.0000,  0.0000,  0.0000)
  11 Au     5.878393    1.710751    8.446328    ( 0.0000,  0.0000,  0.0000)
  12 Au     1.486550    4.235341    8.449606    ( 0.0000,  0.0000,  0.0000)
  13 Au     4.420750    4.235462    8.446328    ( 0.0000,  0.0000,  0.0000)
  14 Au     7.384497    4.263442    8.377438    ( 0.0000,  0.0000,  0.0000)
  15 Au     2.954434    6.821503    8.388378    ( 0.0000,  0.0000,  0.0000)
  16 Au     5.928268    6.843783    8.449779    ( 0.0000,  0.0000,  0.0000)
  17 Au     8.841565    6.843359    8.449606    ( 0.0000,  0.0000,  0.0000)
  18 Au    -0.032903   -0.018997   10.823529    ( 0.0000,  0.0000,  0.0000)
  19 Au     2.954239   -0.130434   10.979084    ( 0.0000,  0.0000,  0.0000)
  20 Au     5.943294   -0.019137   10.827212    ( 0.0000,  0.0000,  0.0000)
  21 Au     1.364160    2.623663   10.979084    ( 0.0000,  0.0000,  0.0000)
  22 Au     4.544687    2.623876   10.978124    ( 0.0000,  0.0000,  0.0000)
  23 Au     7.383249    2.574522   10.808425    ( 0.0000,  0.0000,  0.0000)
  24 Au     2.955074    5.156613   10.827212    ( 0.0000,  0.0000,  0.0000)
  25 Au     5.921226    5.106820   10.808425    ( 0.0000,  0.0000,  0.0000)
  26 Au     8.848796    5.108855   10.809491    ( 0.0000,  0.0000,  0.0000)
  27 O      2.949893    1.703121   12.131671    ( 0.0000,  0.0000,  0.0000)

Unit cell:
           periodic     x           y           z      points  spacing
  1. axis:    yes    8.860755    0.000000    0.000000    45     0.1705
  2. axis:    yes    4.430378    7.673639    0.000000    45     0.1705
  3. axis:    no     0.000000    0.000000   16.823184    84     0.2003

  Lengths:   8.860755   8.860755  16.823184
  Angles:   90.000000  90.000000  60.000000

Effective grid spacing dv^(1/3) = 0.1888

     iter     time        total  log10-change:
                         energy  eigst   dens
iter:   1 17:20:22   -82.975631  -3.29
iter:   2 17:20:28   -82.969120  -4.59  -2.96
iter:   3 17:20:33   -82.966811c -4.84  -3.06
iter:   4 17:20:38   -82.965965c -4.82  -3.22
iter:   5 17:20:44   -82.965569c -4.76  -3.46
iter:   6 17:20:49   -82.965357c -5.73  -3.65
iter:   7 17:20:54   -82.965390c -5.76  -3.85
iter:   8 17:21:00   -82.965318c -6.09  -4.01c
iter:   9 17:21:05   -82.965279c -6.22  -4.11c
iter:  10 17:21:10   -82.965278c -7.55c -4.38c

Converged after 10 iterations.

Dipole moment: (13.501661, 7.795188, -0.252437) |e|*Ang

Energy contributions relative to reference atoms: (reference = -13950194.172252)

Kinetic:       -302.166080
Potential:     +244.009692
External:        +0.000000
XC:             -27.735277
Entropy (-ST):   -0.262519
Local:           +3.057646
--------------------------
Free energy:    -83.096537
Extrapolated:   -82.965278

Showing only first 2 kpts
 Kpt  Band  Eigenvalues  Occupancy
  0   149     -0.16369    1.99974
  0   150      0.05326    1.99777
  0   151      0.31876    1.96873
  0   152      0.42287    1.91390

  1   149     -0.47058    1.99999
  1   150     -0.31245    1.99994
  1   151      0.23228    1.98671
  1   152      0.23808    1.98592


Fermi level: 0.73301

No gap

Forces in eV/Ang:
  0 Au    0.01405    0.00811    0.02487
  1 Au   -0.01593    0.00627    0.02406
  2 Au   -0.00173    0.00247    0.01180
  3 Au   -0.00254   -0.01693    0.02406
  4 Au   -0.01216   -0.00702    0.00644
  5 Au    0.00989   -0.00687    0.00436
  6 Au    0.00128   -0.00273    0.01180
  7 Au   -0.00101    0.01200    0.00436
  8 Au   -0.00327   -0.00189    0.01069
  9 Au   -0.00111   -0.00449   -0.00913
 10 Au   -0.00036   -0.00021    0.06012
 11 Au    0.00054   -0.00263   -0.00489
 12 Au    0.00315    0.00393   -0.00715
 13 Au   -0.00201    0.00178   -0.00489
 14 Au    0.00067    0.00039   -0.04280
 15 Au    0.00020    0.00012    0.01259
 16 Au   -0.00444    0.00128   -0.00913
 17 Au    0.00498    0.00077   -0.00715
 18 Au    0.00799    0.00461    0.00703
 19 Au    0.00099   -0.09223   -0.01303
 20 Au   -0.00155    0.00391    0.00802
 21 Au   -0.07938    0.04697   -0.01303
 22 Au    0.08942    0.05163   -0.00885
 23 Au   -0.00670    0.00620   -0.02040
 24 Au    0.00261   -0.00329    0.00802
 25 Au    0.00202   -0.00891   -0.02040
 26 Au   -0.00252   -0.00145   -0.02087
 27 O    -0.00488   -0.00282    0.06397

System changes: positions 

Initializing position-dependent things.

Density initialized from wave functions
                                              
                                              
                                              
                                              
                                              
                                              
                  Au     Au     Au            
                O                             
            Au     AAu    AAu    Au           
       Au     Au      Au                      
              Au     Au     Au                
        Au      Au    AAu    Au     Au        
                                              
                 Au     Au     Au             
                                              
           Au      Au     Au                  
                                              
                                              
                                              
                                              

Positions:
   0 Au     1.485287    0.857531    6.020510    ( 0.0000,  0.0000,  0.0000)
   1 Au     4.416353    0.855934    6.022185    ( 0.0000,  0.0000,  0.0000)
   2 Au     7.383158    0.883666    6.038835    ( 0.0000,  0.0000,  0.0000)
   3 Au     2.949437    3.396707    6.022185    ( 0.0000,  0.0000,  0.0000)
   4 Au     5.871973    3.390185    6.008397    ( 0.0000,  0.0000,  0.0000)
   5 Au     8.890076    3.391216    6.005407    ( 0.0000,  0.0000,  0.0000)
   6 Au     4.456856    5.952170    6.038835    ( 0.0000,  0.0000,  0.0000)
   7 Au     7.381917    6.003423    6.005407    ( 0.0000,  0.0000,  0.0000)
   8 Au    10.307073    5.950791    6.038668    ( 0.0000,  0.0000,  0.0000)
   9 Au     0.016927    1.696255    8.433853    ( 0.0000,  0.0000,  0.0000)
  10 Au     2.953989    1.705487    8.514442    ( 0.0000,  0.0000,  0.0000)
  11 Au     5.890575    1.695956    8.433653    ( 0.0000,  0.0000,  0.0000)
  12 Au     1.494251    4.255958    8.435300    ( 0.0000,  0.0000,  0.0000)
  13 Au     4.414029    4.253409    8.433653    ( 0.0000,  0.0000,  0.0000)
  14 Au     7.385819    4.264205    8.335763    ( 0.0000,  0.0000,  0.0000)
  15 Au     2.953798    6.821136    8.412110    ( 0.0000,  0.0000,  0.0000)
  16 Au     5.907841    6.840171    8.433853    ( 0.0000,  0.0000,  0.0000)
  17 Au     8.863271    6.839720    8.435300    ( 0.0000,  0.0000,  0.0000)
  18 Au    -0.017039   -0.009838   10.828638    ( 0.0000,  0.0000,  0.0000)
  19 Au     2.956341   -0.190120   10.997650    ( 0.0000,  0.0000,  0.0000)
  20 Au     5.934024   -0.010158   10.833336    ( 0.0000,  0.0000,  0.0000)
  21 Au     1.313522    2.655327   10.997650    ( 0.0000,  0.0000,  0.0000)
  22 Au     4.592020    2.651204   11.007902    ( 0.0000,  0.0000,  0.0000)
  23 Au     7.380861    2.589920   10.780007    ( 0.0000,  0.0000,  0.0000)
  24 Au     2.958215    5.144095   10.833336    ( 0.0000,  0.0000,  0.0000)
  25 Au     5.933367    5.097053   10.780007    ( 0.0000,  0.0000,  0.0000)
  26 Au     8.837532    5.102352   10.780240    ( 0.0000,  0.0000,  0.0000)
  27 O      2.952662    1.704720   12.089402    ( 0.0000,  0.0000,  0.0000)

Unit cell:
           periodic     x           y           z      points  spacing
  1. axis:    yes    8.860755    0.000000    0.000000    45     0.1705
  2. axis:    yes    4.430378    7.673639    0.000000    45     0.1705
  3. axis:    no     0.000000    0.000000   16.823184    84     0.2003

  Lengths:   8.860755   8.860755  16.823184
  Angles:   90.000000  90.000000  60.000000

Effective grid spacing dv^(1/3) = 0.1888

     iter     time        total  log10-change:
                         energy  eigst   dens
iter:   1 17:21:17   -83.102090  -1.96
iter:   2 17:21:23   -83.013499  -3.36  -2.31
iter:   3 17:21:28   -82.961401c -3.50  -2.43
iter:   4 17:21:33   -82.936849c -3.31  -2.59
iter:   5 17:21:39   -82.937043c -3.66  -2.87
iter:   6 17:21:44   -82.934493c -4.61  -3.03
iter:   7 17:21:49   -82.933843c -4.43  -3.14
iter:   8 17:21:55   -82.933454c -5.64  -3.38
iter:   9 17:22:00   -82.932769c -5.10  -3.46
iter:  10 17:22:05   -82.932792c -5.60  -3.71
iter:  11 17:22:11   -82.932763c -6.45  -3.92
iter:  12 17:22:16   -82.932750c -6.57  -4.00c
iter:  13 17:22:21   -82.932740c -6.34  -4.09c
iter:  14 17:22:26   -82.932742c -6.99  -4.30c
iter:  15 17:22:32   -82.932740c -7.42c -4.41c

Converged after 15 iterations.

Dipole moment: (16.195985, 9.350756, -0.263275) |e|*Ang

Energy contributions relative to reference atoms: (reference = -13950194.172252)

Kinetic:       -296.230652
Potential:     +238.893587
External:        +0.000000
XC:             -28.537677
Entropy (-ST):   -0.262308
Local:           +3.073156
--------------------------
Free energy:    -83.063894
Extrapolated:   -82.932740

Showing only first 2 kpts
 Kpt  Band  Eigenvalues  Occupancy
  0   149     -0.16072    1.99973
  0   150      0.08206    1.99691
  0   151      0.33896    1.96037
  0   152      0.42855    1.90564

  1   149     -0.44499    1.99998
  1   150     -0.27225    1.99991
  1   151      0.25418    1.98283
  1   152      0.26616    1.98067


Fermi level: 0.72909

No gap

Forces in eV/Ang:
  0 Au   -0.07312   -0.04222   -0.05558
  1 Au    0.06727   -0.02361   -0.05167
  2 Au    0.00022   -0.11105   -0.06836
  3 Au    0.01319    0.07006   -0.05167
  4 Au    0.04525    0.02613   -0.05423
  5 Au   -0.05837    0.02438   -0.05526
  6 Au   -0.09606    0.05571   -0.06836
  7 Au   -0.00807   -0.06274   -0.05526
  8 Au    0.10134    0.05851   -0.07788
  9 Au    0.10671    0.09242    0.08901
 10 Au   -0.00130   -0.00075    0.07671
 11 Au   -0.10876    0.08903    0.08386
 12 Au   -0.02482   -0.14537    0.08975
 13 Au    0.02272   -0.13871    0.08386
 14 Au   -0.00276   -0.00159    0.01510
 15 Au    0.00682    0.00394   -0.04067
 16 Au    0.13339    0.04620    0.08901
 17 Au   -0.13830    0.05119    0.08975
 18 Au   -0.04482   -0.02587    0.00019
 19 Au   -0.00788    0.35195    0.06221
 20 Au    0.04986   -0.03378    0.00411
 21 Au    0.30086   -0.18279    0.06221
 22 Au   -0.24018   -0.13867    0.04321
 23 Au    0.00279   -0.08746   -0.00133
 24 Au   -0.00432    0.06007    0.00411
 25 Au   -0.07435    0.04615   -0.00133
 26 Au    0.07704    0.04448    0.00023
 27 O    -0.05107   -0.02948   -0.30578

System changes: positions 

Initializing position-dependent things.

Density initialized from wave functions
                                              
                                              
                                              
                                              
                                              
                                              
                  Au     Au     Au            
                O                             
            Au     AAu    AAu    Au           
              Au                              
       Au     Au     AAu    Au                
        Au      Au    AAu    Au     Au        
                                              
                 Au     Au     Au             
                                              
           Au      Au     Au                  
                                              
                                              
                                              
                                              

Positions:
   0 Au     1.470352    0.848908    5.999999    ( 0.0000,  0.0000,  0.0000)
   1 Au     4.431912    0.850340    6.002011    ( 0.0000,  0.0000,  0.0000)
   2 Au     7.384525    0.871265    6.027976    ( 0.0000,  0.0000,  0.0000)
   3 Au     2.952372    3.412978    6.002011    ( 0.0000,  0.0000,  0.0000)
   4 Au     5.885050    3.397735    6.001240    ( 0.0000,  0.0000,  0.0000)
   5 Au     8.877297    3.398363    5.999861    ( 0.0000,  0.0000,  0.0000)
   6 Au     4.446800    5.959554    6.027976    ( 0.0000,  0.0000,  0.0000)
   7 Au     7.381717    5.988784    5.999861    ( 0.0000,  0.0000,  0.0000)
   8 Au    10.319193    5.957789    6.027377    ( 0.0000,  0.0000,  0.0000)
   9 Au     0.029359    1.709718    8.446754    ( 0.0000,  0.0000,  0.0000)
  10 Au     2.953855    1.705409    8.479865    ( 0.0000,  0.0000,  0.0000)
  11 Au     5.878791    1.708746    8.444650    ( 0.0000,  0.0000,  0.0000)
  12 Au     1.488447    4.237555    8.447317    ( 0.0000,  0.0000,  0.0000)
  13 Au     4.419213    4.236809    8.444650    ( 0.0000,  0.0000,  0.0000)
  14 Au     7.384905    4.263677    8.360566    ( 0.0000,  0.0000,  0.0000)
  15 Au     2.954455    6.821515    8.396543    ( 0.0000,  0.0000,  0.0000)
  16 Au     5.925717    6.844206    8.446754    ( 0.0000,  0.0000,  0.0000)
  17 Au     8.844432    6.843894    8.447317    ( 0.0000,  0.0000,  0.0000)
  18 Au    -0.028265   -0.016319   10.825808    ( 0.0000,  0.0000,  0.0000)
  19 Au     2.954757   -0.146888   10.986149    ( 0.0000,  0.0000,  0.0000)
  20 Au     5.941623   -0.016830   10.830034    ( 0.0000,  0.0000,  0.0000)
  21 Au     1.350170    2.632339   10.986149    ( 0.0000,  0.0000,  0.0000)
  22 Au     4.560547    2.633033   10.988674    ( 0.0000,  0.0000,  0.0000)
  23 Au     7.381910    2.577309   10.796851    ( 0.0000,  0.0000,  0.0000)
  24 Au     2.956236    5.154011   10.830034    ( 0.0000,  0.0000,  0.0000)
  25 Au     5.922970    5.104268   10.796851    ( 0.0000,  0.0000,  0.0000)
  26 Au     8.847362    5.108027   10.797655    ( 0.0000,  0.0000,  0.0000)
  27 O      2.948678    1.702420   12.114082    ( 0.0000,  0.0000,  0.0000)

Unit cell:
           periodic     x           y           z      points  spacing
  1. axis:    yes    8.860755    0.000000    0.000000    45     0.1705
  2. axis:    yes    4.430378    7.673639    0.000000    45     0.1705
  3. axis:    no     0.000000    0.000000   16.823184    84     0.2003

  Lengths:   8.860755   8.860755  16.823184
  Angles:   90.000000  90.000000  60.000000

Effective grid spacing dv^(1/3) = 0.1888

     iter     time        total  log10-change:
                         energy  eigst   dens
iter:   1 17:22:39   -83.085952  -2.21
iter:   2 17:22:44   -83.015744  -3.56  -2.39
iter:   3 17:22:50   -82.993171c -3.92  -2.55
iter:   4 17:22:55   -82.973276c -3.35  -2.66
iter:   5 17:23:00   -82.971566c -3.99  -3.01
iter:   6 17:23:06   -82.971017c -5.30  -3.19
iter:   7 17:23:11   -82.970408c -4.65  -3.22
iter:   8 17:23:16   -82.970245c -5.33  -3.41
iter:   9 17:23:22   -82.970201c -5.99  -3.59
iter:  10 17:23:27   -82.970191c -6.49  -3.60
iter:  11 17:23:32   -82.970085c -5.67  -3.63
iter:  12 17:23:37   -82.970099c -6.06  -4.03c
iter:  13 17:23:43   -82.970079c -6.74  -4.25c
iter:  14 17:23:48   -82.970054c -6.94  -4.34c
iter:  15 17:23:53   -82.970049c -7.68c -4.56c

Converged after 15 iterations.

Dipole moment: (14.340477, 8.279478, -0.249484) |e|*Ang

Energy contributions relative to reference atoms: (reference = -13950194.172252)

Kinetic:       -300.545375
Potential:     +242.614673
External:        +0.000000
XC:             -27.967523
Entropy (-ST):   -0.262432
Local:           +3.059392
--------------------------
Free energy:    -83.101265
Extrapolated:   -82.970049

Showing only first 2 kpts
 Kpt  Band  Eigenvalues  Occupancy
  0   149     -0.15960    1.99973
  0   150      0.06163    1.99757
  0   151      0.32495    1.96671
  0   152      0.42437    1.91251

  1   149     -0.46050    1.99999
  1   150     -0.30240    1.99994
  1   151      0.24013    1.98561
  1   152      0.24695    1.98460


Fermi level: 0.73283

No gap

Forces in eV/Ang:
  0 Au   -0.00577   -0.00333    0.00527
  1 Au    0.00271   -0.00208    0.00709
  2 Au   -0.00093   -0.01659    0.00029
  3 Au   -0.00045    0.00339    0.00709
  4 Au    0.00290    0.00168   -0.00959
  5 Au   -0.00529    0.00163   -0.01138
  6 Au   -0.01483    0.00749    0.00029
  7 Au   -0.00124   -0.00540   -0.01138
  8 Au    0.01349    0.00779   -0.00083
  9 Au    0.00940    0.00507    0.00510
 10 Au    0.00049    0.00028    0.03303
 11 Au   -0.01132    0.00192    0.00424
 12 Au    0.00234   -0.01133    0.00531
 13 Au   -0.00400   -0.01077    0.00424
 14 Au    0.00060    0.00034   -0.00852
 15 Au    0.00038    0.00022   -0.00621
 16 Au    0.00909    0.00561    0.00510
 17 Au   -0.00864    0.00769    0.00531
 18 Au   -0.00770   -0.00445    0.00255
 19 Au    0.00065   -0.00267   -0.00331
 20 Au    0.01058   -0.00601    0.00420
 21 Au   -0.00199    0.00190   -0.00331
 22 Au   -0.00796   -0.00460    0.00959
 23 Au    0.00867   -0.00307   -0.00719
 24 Au    0.00009    0.01216    0.00420
 25 Au    0.00168    0.00904   -0.00719
 26 Au    0.00308    0.00178   -0.00799
 27 O     0.00654    0.00377    0.01352

System changes: positions 

Initializing position-dependent things.

Density initialized from wave functions
                                              
                                              
                                              
                                              
                                              
                                              
                  Au     Au     Au            
                O                             
            Au     AAu    AAu    Au           
              Au                              
       Au     Au     AAu    Au                
        Au      Au    AAu    Au     Au        
                                              
                 Au     Au     Au             
                                              
           Au      Au     Au                  
                                              
                                              
                                              
                                              

Positions:
   0 Au     1.470547    0.849021    6.003861    ( 0.0000,  0.0000,  0.0000)
   1 Au     4.430798    0.850573    6.006243    ( 0.0000,  0.0000,  0.0000)
   2 Au     7.384053    0.867014    6.028037    ( 0.0000,  0.0000,  0.0000)
   3 Au     2.952017    3.411897    6.006243    ( 0.0000,  0.0000,  0.0000)
   4 Au     5.884426    3.397375    5.999120    ( 0.0000,  0.0000,  0.0000)
   5 Au     8.877054    3.398000    5.997043    ( 0.0000,  0.0000,  0.0000)
   6 Au     4.442883    5.961271    6.028037    ( 0.0000,  0.0000,  0.0000)
   7 Au     7.381281    5.988755    5.997043    ( 0.0000,  0.0000,  0.0000)
   8 Au    10.322569    5.959738    6.027047    ( 0.0000,  0.0000,  0.0000)
   9 Au     0.031597    1.710791    8.447324    ( 0.0000,  0.0000,  0.0000)
  10 Au     2.953940    1.705458    8.495106    ( 0.0000,  0.0000,  0.0000)
  11 Au     5.875963    1.709259    8.445449    ( 0.0000,  0.0000,  0.0000)
  12 Au     1.489145    4.234949    8.448140    ( 0.0000,  0.0000,  0.0000)
  13 Au     4.418243    4.234104    8.445449    ( 0.0000,  0.0000,  0.0000)
  14 Au     7.385126    4.263804    8.354667    ( 0.0000,  0.0000,  0.0000)
  15 Au     2.954574    6.821583    8.397900    ( 0.0000,  0.0000,  0.0000)
  16 Au     5.927764    6.845607    8.447324    ( 0.0000,  0.0000,  0.0000)
  17 Au     8.842523    6.845803    8.448140    ( 0.0000,  0.0000,  0.0000)
  18 Au    -0.028622   -0.016525   10.826977    ( 0.0000,  0.0000,  0.0000)
  19 Au     2.954974   -0.148553   10.987209    ( 0.0000,  0.0000,  0.0000)
  20 Au     5.943466   -0.017509   10.831705    ( 0.0000,  0.0000,  0.0000)
  21 Au     1.348836    2.633359   10.987209    ( 0.0000,  0.0000,  0.0000)
  22 Au     4.560634    2.633083   10.993413    ( 0.0000,  0.0000,  0.0000)
  23 Au     7.383401    2.576828   10.792001    ( 0.0000,  0.0000,  0.0000)
  24 Au     2.956570    5.155947   10.831705    ( 0.0000,  0.0000,  0.0000)
  25 Au     5.923299    5.105799   10.792001    ( 0.0000,  0.0000,  0.0000)
  26 Au     8.848128    5.108469   10.792563    ( 0.0000,  0.0000,  0.0000)
  27 O      2.949500    1.702895   12.114975    ( 0.0000,  0.0000,  0.0000)

Unit cell:
           periodic     x           y           z      points  spacing
  1. axis:    yes    8.860755    0.000000    0.000000    45     0.1705
  2. axis:    yes    4.430378    7.673639    0.000000    45     0.1705
  3. axis:    no     0.000000    0.000000   16.823184    84     0.2003

  Lengths:   8.860755   8.860755  16.823184
  Angles:   90.000000  90.000000  60.000000

Effective grid spacing dv^(1/3) = 0.1888

     iter     time        total  log10-change:
                         energy  eigst   dens
iter:   1 17:24:01   -82.975760  -3.76
iter:   2 17:24:06   -82.972032  -4.98  -3.10
iter:   3 17:24:11   -82.971442c -5.54  -3.38
iter:   4 17:24:17   -82.970667c -5.10  -3.49
iter:   5 17:24:22   -82.970662c -5.57  -3.76
iter:   6 17:24:27   -82.970651c -6.62  -3.97
iter:   7 17:24:33   -82.970623c -6.32  -4.04c
iter:   8 17:24:38   -82.970627c -7.22  -4.28c
iter:   9 17:24:43   -82.970628c -7.00  -4.40c
iter:  10 17:24:48   -82.970632c -7.76c -4.66c

Converged after 10 iterations.

Dipole moment: (14.509810, 8.377243, -0.249710) |e|*Ang

Energy contributions relative to reference atoms: (reference = -13950194.172252)

Kinetic:       -300.482644
Potential:     +242.570716
External:        +0.000000
XC:             -27.987383
Entropy (-ST):   -0.262715
Local:           +3.060035
--------------------------
Free energy:    -83.101990
Extrapolated:   -82.970632

Showing only first 2 kpts
 Kpt  Band  Eigenvalues  Occupancy
  0   149     -0.15726    1.99973
  0   150      0.05926    1.99763
  0   151      0.32559    1.96658
  0   152      0.42441    1.91267

  1   149     -0.46012    1.99999
  1   150     -0.30299    1.99994
  1   151      0.23895    1.98581
  1   152      0.24629    1.98474


Fermi level: 0.73307

No gap

Forces in eV/Ang:
  0 Au   -0.00177   -0.00102    0.00413
  1 Au   -0.00088   -0.00122    0.00473
  2 Au   -0.00113    0.00919    0.00268
  3 Au   -0.00149   -0.00016    0.00473
  4 Au    0.00359    0.00207   -0.00788
  5 Au   -0.00495    0.00259   -0.00846
  6 Au    0.00739   -0.00558    0.00268
  7 Au   -0.00023   -0.00558   -0.00846
  8 Au   -0.00969   -0.00560    0.00361
  9 Au   -0.00641   -0.00393   -0.00656
 10 Au   -0.00035   -0.00020    0.00816
 11 Au    0.00623   -0.00026    0.00162
 12 Au   -0.00088    0.00885   -0.00530
 13 Au    0.00290    0.00553    0.00162
 14 Au   -0.00181   -0.00105   -0.00089
 15 Au   -0.00040   -0.00023   -0.00087
 16 Au   -0.00661   -0.00358   -0.00656
 17 Au    0.00723   -0.00519   -0.00530
 18 Au    0.00086    0.00050   -0.00006
 19 Au    0.00194    0.01593    0.01299
 20 Au   -0.00004    0.00218    0.00012
 21 Au    0.01476   -0.00629    0.01299
 22 Au    0.01201    0.00693    0.00524
 23 Au   -0.01090    0.00745   -0.00264
 24 Au    0.00187   -0.00113    0.00012
 25 Au    0.00100   -0.01317   -0.00264
 26 Au   -0.00175   -0.00101   -0.00017
 27 O    -0.01689   -0.00975    0.00725

System changes: positions 

Initializing position-dependent things.

Density initialized from wave functions
                                              
                                              
                                              
                                              
                                              
                                              
                  Au     Au     Au            
                O                             
            Au     AAu    AAu    Au           
              Au                              
       Au     Au     AAu    Au                
        Au      Au    AAu    Au     Au        
                                              
                 Au     Au     Au             
                                              
           Au      Au     Au                  
                                              
                                              
                                              
                                              

Positions:
   0 Au     1.470522    0.849006    6.007002    ( 0.0000,  0.0000,  0.0000)
   1 Au     4.429860    0.850522    6.009709    ( 0.0000,  0.0000,  0.0000)
   2 Au     7.383599    0.866736    6.029116    ( 0.0000,  0.0000,  0.0000)
   3 Au     2.951504    3.411110    6.009709    ( 0.0000,  0.0000,  0.0000)
   4 Au     5.884427    3.397376    5.996870    ( 0.0000,  0.0000,  0.0000)
   5 Au     8.876375    3.398106    5.994284    ( 0.0000,  0.0000,  0.0000)
   6 Au     4.442415    5.961016    6.029116    ( 0.0000,  0.0000,  0.0000)
   7 Au     7.381033    5.988113    5.994284    ( 0.0000,  0.0000,  0.0000)
   8 Au    10.322303    5.959584    6.028098    ( 0.0000,  0.0000,  0.0000)
   9 Au     0.031293    1.710150    8.446163    ( 0.0000,  0.0000,  0.0000)
  10 Au     2.953946    1.705462    8.505039    ( 0.0000,  0.0000,  0.0000)
  11 Au     5.875901    1.708883    8.445737    ( 0.0000,  0.0000,  0.0000)
  12 Au     1.489675    4.235711    8.447325    ( 0.0000,  0.0000,  0.0000)
  13 Au     4.417887    4.234238    8.445737    ( 0.0000,  0.0000,  0.0000)
  14 Au     7.384971    4.263715    8.350866    ( 0.0000,  0.0000,  0.0000)
  15 Au     2.954546    6.821567    8.398285    ( 0.0000,  0.0000,  0.0000)
  16 Au     5.927057    6.845665    8.446163    ( 0.0000,  0.0000,  0.0000)
  17 Au     8.843449    6.845879    8.447325    ( 0.0000,  0.0000,  0.0000)
  18 Au    -0.028653   -0.016543   10.827640    ( 0.0000,  0.0000,  0.0000)
  19 Au     2.955481   -0.148382   10.990194    ( 0.0000,  0.0000,  0.0000)
  20 Au     5.944443   -0.017493   10.832692    ( 0.0000,  0.0000,  0.0000)
  21 Au     1.349237    2.633713   10.990194    ( 0.0000,  0.0000,  0.0000)
  22 Au     4.563459    2.634714   10.997422    ( 0.0000,  0.0000,  0.0000)
  23 Au     7.382567    2.578271   10.788876    ( 0.0000,  0.0000,  0.0000)
  24 Au     2.957072    5.156785   10.832692    ( 0.0000,  0.0000,  0.0000)
  25 Au     5.924132    5.104355   10.788876    ( 0.0000,  0.0000,  0.0000)
  26 Au     8.847856    5.108312   10.789701    ( 0.0000,  0.0000,  0.0000)
  27 O      2.947501    1.701741   12.115140    ( 0.0000,  0.0000,  0.0000)

Unit cell:
           periodic     x           y           z      points  spacing
  1. axis:    yes    8.860755    0.000000    0.000000    45     0.1705
  2. axis:    yes    4.430378    7.673639    0.000000    45     0.1705
  3. axis:    no     0.000000    0.000000   16.823184    84     0.2003

  Lengths:   8.860755   8.860755  16.823184
  Angles:   90.000000  90.000000  60.000000

Effective grid spacing dv^(1/3) = 0.1888

     iter     time        total  log10-change:
                         energy  eigst   dens
iter:   1 17:24:56   -82.971358  -4.21
iter:   2 17:25:01   -82.971175  -5.57  -3.56
iter:   3 17:25:06   -82.970900c -5.65  -3.64
iter:   4 17:25:12   -82.970824c -5.83  -3.88
iter:   5 17:25:17   -82.970865c -6.34  -4.06c
iter:   6 17:25:22   -82.970861c -6.81  -4.27c
iter:   7 17:25:28   -82.970847c -7.32  -4.40c
iter:   8 17:25:33   -82.970836c -7.65c -4.56c

Converged after 8 iterations.

Dipole moment: (14.488707, 8.365059, -0.249741) |e|*Ang

Energy contributions relative to reference atoms: (reference = -13950194.172252)

Kinetic:       -300.437335
Potential:     +242.534018
External:        +0.000000
XC:             -27.998228
Entropy (-ST):   -0.262640
Local:           +3.062029
--------------------------
Free energy:    -83.102156
Extrapolated:   -82.970836

Showing only first 2 kpts
 Kpt  Band  Eigenvalues  Occupancy
  0   149     -0.15591    1.99973
  0   150      0.05988    1.99763
  0   151      0.32636    1.96645
  0   152      0.42456    1.91288

  1   149     -0.45940    1.99999
  1   150     -0.30306    1.99994
  1   151      0.24072    1.98561
  1   152      0.24774    1.98458


Fermi level: 0.73346

No gap

Forces in eV/Ang:
  0 Au    0.00478    0.00276   -0.00157
  1 Au   -0.00577    0.00371    0.00108
  2 Au   -0.00204    0.00771   -0.00251
  3 Au    0.00033   -0.00685    0.00108
  4 Au   -0.00286   -0.00165   -0.00126
  5 Au    0.00045   -0.00129   -0.00271
  6 Au    0.00565   -0.00562   -0.00251
  7 Au   -0.00090    0.00103   -0.00271
  8 Au   -0.00700   -0.00404   -0.00261
  9 Au   -0.00064    0.00823    0.00382
 10 Au   -0.00097   -0.00056   -0.01410
 11 Au    0.00083    0.00380   -0.00237
 12 Au   -0.00773   -0.00473    0.00267
 13 Au    0.00370   -0.00118   -0.00237
 14 Au    0.00253    0.00146    0.00225
 15 Au    0.00074    0.00043    0.00361
 16 Au    0.00680   -0.00467    0.00382
 17 Au   -0.00796   -0.00433    0.00267
 18 Au    0.00218    0.00126   -0.00604
 19 Au    0.00497   -0.01203   -0.00320
 20 Au   -0.00412    0.00206   -0.00094
 21 Au   -0.00793    0.01032   -0.00320
 22 Au   -0.01135   -0.00655    0.01634
 23 Au    0.01259   -0.00297    0.00211
 24 Au   -0.00028   -0.00459   -0.00094
 25 Au    0.00373    0.01239    0.00211
 26 Au    0.00073    0.00042    0.00088
 27 O     0.01635    0.00944    0.02408

System changes: positions 

Initializing position-dependent things.

Density initialized from wave functions
                                              
                                              
                                              
                                              
                                              
                                              
                  Au     Au     Au            
                O                             
            Au     AAu    AAu    Au           
              Au                              
       Au     Au     AAu    Au                
        Au      Au    AAu    Au     Au        
                                              
                 Au     Au     Au             
                                              
           Au      Au     Au                  
                                              
                                              
                                              
                                              

Positions:
   0 Au     1.469441    0.848382    6.006270    ( 0.0000,  0.0000,  0.0000)
   1 Au     4.430080    0.850294    6.009815    ( 0.0000,  0.0000,  0.0000)
   2 Au     7.383069    0.868752    6.029333    ( 0.0000,  0.0000,  0.0000)
   3 Au     2.951417    3.411415    6.009815    ( 0.0000,  0.0000,  0.0000)
   4 Au     5.885715    3.398119    5.994189    ( 0.0000,  0.0000,  0.0000)
   5 Au     8.874321    3.399015    5.991215    ( 0.0000,  0.0000,  0.0000)
   6 Au     4.443895    5.959549    6.029333    ( 0.0000,  0.0000,  0.0000)
   7 Au     7.380794    5.985880    5.991215    ( 0.0000,  0.0000,  0.0000)
   8 Au    10.320141    5.958336    6.028440    ( 0.0000,  0.0000,  0.0000)
   9 Au     0.030699    1.711402    8.446371    ( 0.0000,  0.0000,  0.0000)
  10 Au     2.953756    1.705352    8.502164    ( 0.0000,  0.0000,  0.0000)
  11 Au     5.876413    1.709602    8.445950    ( 0.0000,  0.0000,  0.0000)
  12 Au     1.488184    4.235553    8.447450    ( 0.0000,  0.0000,  0.0000)
  13 Au     4.418765    4.234322    8.445950    ( 0.0000,  0.0000,  0.0000)
  14 Au     7.385107    4.263793    8.352665    ( 0.0000,  0.0000,  0.0000)
  15 Au     2.954640    6.821622    8.396131    ( 0.0000,  0.0000,  0.0000)
  16 Au     5.927845    6.844524    8.446371    ( 0.0000,  0.0000,  0.0000)
  17 Au     8.842566    6.844667    8.447450    ( 0.0000,  0.0000,  0.0000)
  18 Au    -0.029770   -0.017188   10.826372    ( 0.0000,  0.0000,  0.0000)
  19 Au     2.956839   -0.146442   10.990679    ( 0.0000,  0.0000,  0.0000)
  20 Au     5.945069   -0.017745   10.832533    ( 0.0000,  0.0000,  0.0000)
  21 Au     1.351597    2.633918   10.990679    ( 0.0000,  0.0000,  0.0000)
  22 Au     4.560996    2.633292   11.000919    ( 0.0000,  0.0000,  0.0000)
  23 Au     7.384039    2.578637   10.790332    ( 0.0000,  0.0000,  0.0000)
  24 Au     2.957167    5.157454   10.832533    ( 0.0000,  0.0000,  0.0000)
  25 Au     5.925185    5.105447   10.790332    ( 0.0000,  0.0000,  0.0000)
  26 Au     8.847985    5.108387   10.791359    ( 0.0000,  0.0000,  0.0000)
  27 O      2.948386    1.702251   12.123516    ( 0.0000,  0.0000,  0.0000)

Unit cell:
           periodic     x           y           z      points  spacing
  1. axis:    yes    8.860755    0.000000    0.000000    45     0.1705
  2. axis:    yes    4.430378    7.673639    0.000000    45     0.1705
  3. axis:    no     0.000000    0.000000   16.823184    84     0.2003

  Lengths:   8.860755   8.860755  16.823184
  Angles:   90.000000  90.000000  60.000000

Effective grid spacing dv^(1/3) = 0.1888

     iter     time        total  log10-change:
                         energy  eigst   dens
iter:   1 17:25:40   -82.974517  -4.15
iter:   2 17:25:46   -82.971807  -5.32  -3.29
iter:   3 17:25:51   -82.971188c -5.60  -3.50
iter:   4 17:25:56   -82.970986c -5.40  -3.67
iter:   5 17:26:02   -82.970938c -5.99  -3.99
iter:   6 17:26:07   -82.970973c -6.49  -4.11c
iter:   7 17:26:12   -82.970943c -7.03  -4.33c
iter:   8 17:26:17   -82.970942c -7.85c -4.56c

Converged after 8 iterations.

Dipole moment: (14.405443, 8.316987, -0.251894) |e|*Ang

Energy contributions relative to reference atoms: (reference = -13950194.172252)

Kinetic:       -301.135790
Potential:     +243.130444
External:        +0.000000
XC:             -27.892193
Entropy (-ST):   -0.262729
Local:           +3.057962
--------------------------
Free energy:    -83.102306
Extrapolated:   -82.970942

Showing only first 2 kpts
 Kpt  Band  Eigenvalues  Occupancy
  0   149     -0.15809    1.99973
  0   150      0.05616    1.99769
  0   151      0.32516    1.96653
  0   152      0.42368    1.91280

  1   149     -0.46356    1.99999
  1   150     -0.30542    1.99994
  1   151      0.23827    1.98583
  1   152      0.24473    1.98489


Fermi level: 0.73250

No gap

Forces in eV/Ang:
  0 Au    0.00301    0.00174    0.00305
  1 Au   -0.00582   -0.00030    0.00266
  2 Au    0.00052   -0.00481   -0.00136
  3 Au   -0.00317   -0.00489    0.00266
  4 Au   -0.00743   -0.00429    0.00610
  5 Au    0.00807   -0.00576    0.00500
  6 Au   -0.00390    0.00286   -0.00136
  7 Au   -0.00095    0.00987    0.00500
  8 Au    0.00273    0.00158   -0.00024
  9 Au    0.00587   -0.00049   -0.00103
 10 Au    0.00009    0.00005    0.00318
 11 Au   -0.00567    0.00433    0.00675
 12 Au    0.00145   -0.00223    0.00075
 13 Au    0.00091   -0.00707    0.00675
 14 Au   -0.00256   -0.00148   -0.00620
 15 Au   -0.00271   -0.00156    0.00370
 16 Au    0.00251    0.00533   -0.00103
 17 Au   -0.00121    0.00237    0.00075
 18 Au    0.01339    0.00773   -0.00168
 19 Au   -0.00277    0.01383    0.00321
 20 Au   -0.00690    0.00668   -0.00393
 21 Au    0.01059   -0.00931    0.00321
 22 Au    0.00815    0.00470   -0.00489
 23 Au   -0.00943   -0.00294    0.00134
 24 Au    0.00233   -0.00932   -0.00393
 25 Au   -0.00726   -0.00670    0.00134
 26 Au    0.00485    0.00280    0.00125
 27 O    -0.00933   -0.00539   -0.00615

System changes: positions 

Initializing position-dependent things.

Density initialized from wave functions
                                              
                                              
                                              
                                              
                                              
                                              
                  Au     Au     Au            
                O                             
            Au     AAu    AAu    Au           
              Au                              
       Au     Au     AAu    Au                
        Au      Au    AAu    Au     Au        
                                              
                 Au     Au     Au             
                                              
           Au      Au     Au                  
                                              
                                              
                                              
                                              

Positions:
   0 Au     1.470227    0.848836    6.007049    ( 0.0000,  0.0000,  0.0000)
   1 Au     4.429014    0.850514    6.010571    ( 0.0000,  0.0000,  0.0000)
   2 Au     7.383069    0.868142    6.029227    ( 0.0000,  0.0000,  0.0000)
   3 Au     2.951074    3.410382    6.010571    ( 0.0000,  0.0000,  0.0000)
   4 Au     5.884438    3.397382    5.995144    ( 0.0000,  0.0000,  0.0000)
   5 Au     8.875595    3.398120    5.991984    ( 0.0000,  0.0000,  0.0000)
   6 Au     4.443367    5.959855    6.029227    ( 0.0000,  0.0000,  0.0000)
   7 Au     7.380655    5.987431    5.991984    ( 0.0000,  0.0000,  0.0000)
   8 Au    10.320537    5.958565    6.028395    ( 0.0000,  0.0000,  0.0000)
   9 Au     0.031493    1.711518    8.446382    ( 0.0000,  0.0000,  0.0000)
  10 Au     2.953752    1.705350    8.503731    ( 0.0000,  0.0000,  0.0000)
  11 Au     5.875625    1.710077    8.446515    ( 0.0000,  0.0000,  0.0000)
  12 Au     1.488313    4.235034    8.447637    ( 0.0000,  0.0000,  0.0000)
  13 Au     4.418782    4.233402    8.446515    ( 0.0000,  0.0000,  0.0000)
  14 Au     7.384955    4.263706    8.351051    ( 0.0000,  0.0000,  0.0000)
  15 Au     2.954386    6.821475    8.397080    ( 0.0000,  0.0000,  0.0000)
  16 Au     5.928342    6.845153    8.446382    ( 0.0000,  0.0000,  0.0000)
  17 Au     8.842181    6.845039    8.447637    ( 0.0000,  0.0000,  0.0000)
  18 Au    -0.028079   -0.016211   10.826230    ( 0.0000,  0.0000,  0.0000)
  19 Au     2.956602   -0.146624   10.990979    ( 0.0000,  0.0000,  0.0000)
  20 Au     5.944178   -0.016937   10.832268    ( 0.0000,  0.0000,  0.0000)
  21 Au     1.351320    2.633804   10.990979    ( 0.0000,  0.0000,  0.0000)
  22 Au     4.562338    2.634067   11.001077    ( 0.0000,  0.0000,  0.0000)
  23 Au     7.383464    2.578171   10.789917    ( 0.0000,  0.0000,  0.0000)
  24 Au     2.957421    5.156277   10.832268    ( 0.0000,  0.0000,  0.0000)
  25 Au     5.924493    5.105182   10.789917    ( 0.0000,  0.0000,  0.0000)
  26 Au     8.848523    5.108697   10.790828    ( 0.0000,  0.0000,  0.0000)
  27 O      2.948041    1.702052   12.122006    ( 0.0000,  0.0000,  0.0000)

Unit cell:
           periodic     x           y           z      points  spacing
  1. axis:    yes    8.860755    0.000000    0.000000    45     0.1705
  2. axis:    yes    4.430378    7.673639    0.000000    45     0.1705
  3. axis:    no     0.000000    0.000000   16.823184    84     0.2003

  Lengths:   8.860755   8.860755  16.823184
  Angles:   90.000000  90.000000  60.000000

Effective grid spacing dv^(1/3) = 0.1888

     iter     time        total  log10-change:
                         energy  eigst   dens
iter:   1 17:26:25   -82.971848  -4.53
iter:   2 17:26:30   -82.971355  -5.95  -3.44
iter:   3 17:26:35   -82.971136c -5.90  -3.62
iter:   4 17:26:41   -82.971002c -5.48  -3.80
iter:   5 17:26:46   -82.971039c -6.32  -4.24c
iter:   6 17:26:51   -82.971028c -7.31  -4.40c
iter:   7 17:26:57   -82.970995c -7.28  -4.49c
iter:   8 17:27:02   -82.970997c -8.25c -4.77c

Converged after 8 iterations.

Dipole moment: (14.314496, 8.264478, -0.251628) |e|*Ang

Energy contributions relative to reference atoms: (reference = -13950194.172252)

Kinetic:       -300.840810
Potential:     +242.875383
External:        +0.000000
XC:             -27.933244
Entropy (-ST):   -0.262743
Local:           +3.059046
--------------------------
Free energy:    -83.102369
Extrapolated:   -82.970997

Showing only first 2 kpts
 Kpt  Band  Eigenvalues  Occupancy
  0   149     -0.15730    1.99973
  0   150      0.05778    1.99766
  0   151      0.32544    1.96659
  0   152      0.42394    1.91296

  1   149     -0.46223    1.99999
  1   150     -0.30440    1.99994
  1   151      0.23897    1.98579
  1   152      0.24553    1.98483


Fermi level: 0.73295

No gap

Forces in eV/Ang:
  0 Au   -0.00272   -0.00157   -0.00081
  1 Au    0.00171   -0.00046    0.00074
  2 Au   -0.00147    0.00211    0.00381
  3 Au    0.00046    0.00171    0.00074
  4 Au    0.00093    0.00054   -0.00009
  5 Au   -0.00372    0.00099   -0.00139
  6 Au    0.00109   -0.00233    0.00381
  7 Au   -0.00100   -0.00372   -0.00139
  8 Au   -0.00247   -0.00143    0.00260
  9 Au   -0.00417   -0.00300    0.00003
 10 Au    0.00078    0.00045   -0.00065
 11 Au    0.00283   -0.00455   -0.00166
 12 Au    0.00161    0.00208    0.00067
 13 Au   -0.00252    0.00472   -0.00166
 14 Au    0.00038    0.00022    0.00176
 15 Au    0.00126    0.00073    0.00171
 16 Au   -0.00468   -0.00211    0.00003
 17 Au    0.00261    0.00036    0.00067
 18 Au   -0.00270   -0.00156   -0.00377
 19 Au    0.00244   -0.00092    0.00137
 20 Au    0.00359   -0.00124   -0.00136
 21 Au    0.00042    0.00258    0.00137
 22 Au   -0.00298   -0.00172    0.00858
 23 Au    0.00368    0.00281    0.00125
 24 Au    0.00072    0.00373   -0.00136
 25 Au    0.00427    0.00178    0.00125
 26 Au   -0.00276   -0.00159    0.00113
 27 O     0.00706    0.00407    0.01017

System changes: positions 

Initializing position-dependent things.

Density initialized from wave functions
                                              
                                              
                                              
                                              
                                              
                                              
                                              
                O Au     Au     Au            
            Au      Au     Au                 
                   Au     Au     Au           
       Au     AAu    AAu    Au                
                                              
        Au      Au    AAu    Au     Au        
                                              
                 Au     Au     Au             
           Au     Au      Au                  
                                              
                                              
                                              
                                              
                                              

Positions:
   0 Au     1.488358    0.859304    6.082217    ( 0.0000,  0.0000,  0.0000)
   1 Au     4.347037    0.860022    6.122354    ( 0.0000,  0.0000,  0.0000)
   2 Au     7.352700    0.927432    6.068137    ( 0.0000,  0.0000,  0.0000)
   3 Au     2.918320    3.334633    6.122354    ( 0.0000,  0.0000,  0.0000)
   4 Au     5.835447    3.369097    5.946596    ( 0.0000,  0.0000,  0.0000)
   5 Au     8.879401    3.368686    5.906071    ( 0.0000,  0.0000,  0.0000)
   6 Au     4.479530    5.903909    6.068137    ( 0.0000,  0.0000,  0.0000)
   7 Au     7.357068    6.005444    5.906071    ( 0.0000,  0.0000,  0.0000)
   8 Au    10.236194    5.909869    6.072255    ( 0.0000,  0.0000,  0.0000)
   9 Au     0.031233    1.732645    8.429265    ( 0.0000,  0.0000,  0.0000)
  10 Au     2.948982    1.702595    8.639820    ( 0.0000,  0.0000,  0.0000)
  11 Au     5.865246    1.736877    8.481060    ( 0.0000,  0.0000,  0.0000)
  12 Au     1.458905    4.231248    8.446556    ( 0.0000,  0.0000,  0.0000)
  13 Au     4.436802    4.211014    8.481060    ( 0.0000,  0.0000,  0.0000)
  14 Au     7.379398    4.260497    8.245829    ( 0.0000,  0.0000,  0.0000)
  15 Au     2.944323    6.815665    8.406038    ( 0.0000,  0.0000,  0.0000)
  16 Au     5.946508    6.834366    8.429265    ( 0.0000,  0.0000,  0.0000)
  17 Au     8.824198    6.821464    8.446556    ( 0.0000,  0.0000,  0.0000)
  18 Au     0.046938    0.027100   10.767262    ( 0.0000,  0.0000,  0.0000)
  19 Au     3.005626   -0.136790   11.088385    ( 0.0000,  0.0000,  0.0000)
  20 Au     5.920851    0.032024   10.817059    ( 0.0000,  0.0000,  0.0000)
  21 Au     1.384349    2.671344   11.088385    ( 0.0000,  0.0000,  0.0000)
  22 Au     4.635709    2.676428   11.230530    ( 0.0000,  0.0000,  0.0000)
  23 Au     7.391698    2.600392   10.769871    ( 0.0000,  0.0000,  0.0000)
  24 Au     2.988159    5.111595   10.817059    ( 0.0000,  0.0000,  0.0000)
  25 Au     5.947854    5.101202   10.769871    ( 0.0000,  0.0000,  0.0000)
  26 Au     8.866703    5.119194   10.773596    ( 0.0000,  0.0000,  0.0000)
  27 O      2.951067    1.703799   12.288727    ( 0.0000,  0.0000,  0.0000)

Unit cell:
           periodic     x           y           z      points  spacing
  1. axis:    yes    8.860755    0.000000    0.000000    45     0.1705
  2. axis:    yes    4.430378    7.673639    0.000000    45     0.1705
  3. axis:    no     0.000000    0.000000   16.823184    84     0.2003

  Lengths:   8.860755   8.860755  16.823184
  Angles:   90.000000  90.000000  60.000000

Effective grid spacing dv^(1/3) = 0.1888

     iter     time        total  log10-change:
                         energy  eigst   dens
iter:   1 17:27:09   -83.717591  -1.20
iter:   2 17:27:15   -83.163311  -2.53  -1.98
iter:   3 17:27:20   -82.872066  -2.68  -2.12
iter:   4 17:27:25   -82.780160  -2.73  -2.32
iter:   5 17:27:31   -82.777655c -3.25  -2.54
iter:   6 17:27:36   -82.765310c -3.61  -2.65
iter:   7 17:27:41   -82.764386c -4.20  -2.87
iter:   8 17:27:46   -82.762452c -4.36  -3.00
iter:   9 17:27:52   -82.762530c -4.91  -3.16
iter:  10 17:27:57   -82.761840c -4.67  -3.27
iter:  11 17:28:02   -82.761835c -5.65  -3.54
iter:  12 17:28:08   -82.761703c -5.51  -3.59
iter:  13 17:28:13   -82.761836c -5.82  -3.72
iter:  14 17:28:18   -82.761735c -5.83  -3.86
iter:  15 17:28:24   -82.761730c -6.87  -4.23c
iter:  16 17:28:29   -82.761718c -7.04  -4.31c
iter:  17 17:28:34   -82.761707c -7.01  -4.42c
iter:  18 17:28:40   -82.761700c -7.53c -4.45c

Converged after 18 iterations.

Dipole moment: (7.775421, 4.489141, -0.312952) |e|*Ang

Energy contributions relative to reference atoms: (reference = -13950194.172252)

Kinetic:       -300.915677
Potential:     +242.772264
External:        +0.000000
XC:             -27.540893
Entropy (-ST):   -0.265047
Local:           +3.055129
--------------------------
Free energy:    -82.894223
Extrapolated:   -82.761700

Showing only first 2 kpts
 Kpt  Band  Eigenvalues  Occupancy
  0   149     -0.16173    1.99970
  0   150      0.05244    1.99748
  0   151      0.32210    1.96331
  0   152      0.43223    1.89356

  1   149     -0.48107    1.99999
  1   150     -0.27332    1.99990
  1   151      0.23545    1.98441
  1   152      0.23715    1.98414


Fermi level: 0.72009

No gap

Forces in eV/Ang:
  0 Au   -0.31017   -0.17907   -0.20017
  1 Au    0.35822   -0.12908   -0.18243
  2 Au   -0.01575   -0.30772    0.00806
  3 Au    0.06732    0.37477   -0.18243
  4 Au    0.07156    0.04131    0.04623
  5 Au   -0.11974    0.05828    0.06834
  6 Au   -0.27437    0.14022    0.00806
  7 Au   -0.00940   -0.13284    0.06834
  8 Au    0.28202    0.16283   -0.05598
  9 Au   -0.01705   -0.02079    0.11713
 10 Au    0.00804    0.00464    0.13577
 11 Au   -0.02574   -0.11095   -0.02281
 12 Au    0.08711   -0.04733    0.16016
 13 Au   -0.10895    0.03319   -0.02281
 14 Au    0.00883    0.00510    0.13579
 15 Au    0.02291    0.01323   -0.06157
 16 Au   -0.02653   -0.00437    0.11713
 17 Au    0.00256    0.09911    0.16016
 18 Au   -0.20412   -0.11785    0.05810
 19 Au   -0.05427    0.15789    0.00212
 20 Au    0.23003   -0.17241    0.02038
 21 Au    0.10960   -0.12594    0.00212
 22 Au   -0.35184   -0.20314    0.04405
 23 Au    0.19494   -0.01185    0.03030
 24 Au   -0.03430    0.28542    0.02038
 25 Au    0.08720    0.17474    0.03030
 26 Au   -0.02670   -0.01542    0.03321
 27 O     0.05231    0.03020   -0.62682

System changes: positions 

Initializing position-dependent things.

Density initialized from wave functions
                                              
                                              
                                              
                                              
                                              
                                              
                  Au     Au     Au            
                O                             
            Au     AAu    AAu    Au           
              Au                              
       Au     Au     AAu    Au                
        Au      Au    AAu    Au     Au        
                                              
                 Au     Au     Au             
                                              
           Au      Au     Au                  
                                              
                                              
                                              
                                              

Positions:
   0 Au     1.469756    0.848564    6.007826    ( 0.0000,  0.0000,  0.0000)
   1 Au     4.428534    0.850357    6.011957    ( 0.0000,  0.0000,  0.0000)
   2 Au     7.382578    0.868391    6.030247    ( 0.0000,  0.0000,  0.0000)
   3 Au     2.950698    3.410044    6.011957    ( 0.0000,  0.0000,  0.0000)
   4 Au     5.884044    3.397155    5.994559    ( 0.0000,  0.0000,  0.0000)
   5 Au     8.875128    3.397899    5.990781    ( 0.0000,  0.0000,  0.0000)
   6 Au     4.443338    5.959304    6.030247    ( 0.0000,  0.0000,  0.0000)
   7 Au     7.380230    5.987137    5.990781    ( 0.0000,  0.0000,  0.0000)
   8 Au    10.319821    5.958152    6.029306    ( 0.0000,  0.0000,  0.0000)
   9 Au     0.031266    1.711233    8.446250    ( 0.0000,  0.0000,  0.0000)
  10 Au     2.953851    1.705407    8.505837    ( 0.0000,  0.0000,  0.0000)
  11 Au     5.875501    1.709737    8.446954    ( 0.0000,  0.0000,  0.0000)
  12 Au     1.488501    4.235085    8.447833    ( 0.0000,  0.0000,  0.0000)
  13 Au     4.418426    4.233464    8.446954    ( 0.0000,  0.0000,  0.0000)
  14 Au     7.384845    4.263642    8.349998    ( 0.0000,  0.0000,  0.0000)
  15 Au     2.954376    6.821469    8.397087    ( 0.0000,  0.0000,  0.0000)
  16 Au     5.927982    6.845100    8.446250    ( 0.0000,  0.0000,  0.0000)
  17 Au     8.842319    6.845176    8.447833    ( 0.0000,  0.0000,  0.0000)
  18 Au    -0.027642   -0.015959   10.825165    ( 0.0000,  0.0000,  0.0000)
  19 Au     2.957317   -0.146058   10.992193    ( 0.0000,  0.0000,  0.0000)
  20 Au     5.944660   -0.016663   10.831889    ( 0.0000,  0.0000,  0.0000)
  21 Au     1.352168    2.634141   10.992193    ( 0.0000,  0.0000,  0.0000)
  22 Au     4.562705    2.634279   11.004483    ( 0.0000,  0.0000,  0.0000)
  23 Au     7.383893    2.578727   10.789901    ( 0.0000,  0.0000,  0.0000)
  24 Au     2.957900    5.156558   10.831889    ( 0.0000,  0.0000,  0.0000)
  25 Au     5.925189    5.105276   10.789901    ( 0.0000,  0.0000,  0.0000)
  26 Au     8.848483    5.108674   10.790825    ( 0.0000,  0.0000,  0.0000)
  27 O      2.948789    1.702484   12.124920    ( 0.0000,  0.0000,  0.0000)

Unit cell:
           periodic     x           y           z      points  spacing
  1. axis:    yes    8.860755    0.000000    0.000000    45     0.1705
  2. axis:    yes    4.430378    7.673639    0.000000    45     0.1705
  3. axis:    no     0.000000    0.000000   16.823184    84     0.2003

  Lengths:   8.860755   8.860755  16.823184
  Angles:   90.000000  90.000000  60.000000

Effective grid spacing dv^(1/3) = 0.1888

     iter     time        total  log10-change:
                         energy  eigst   dens
iter:   1 17:28:47   -84.352773  -1.20
iter:   2 17:28:52   -83.396071  -2.45  -1.90
iter:   3 17:28:58   -83.159994  -2.92  -2.12
iter:   4 17:29:03   -82.990509  -2.43  -2.25
iter:   5 17:29:08   -82.979960  -3.32  -2.55
iter:   6 17:29:14   -82.973857c -3.83  -2.71
iter:   7 17:29:19   -82.972933c -4.33  -2.86
iter:   8 17:29:24   -82.972320c -4.73  -3.03
iter:   9 17:29:29   -82.971859c -4.53  -3.19
iter:  10 17:29:35   -82.971550c -5.43  -3.48
iter:  11 17:29:40   -82.971163c -5.37  -3.53
iter:  12 17:29:45   -82.971108c -5.62  -3.63
iter:  13 17:29:51   -82.971090c -5.97  -3.81
iter:  14 17:29:56   -82.971067c -6.28  -3.94
iter:  15 17:30:01   -82.971050c -6.15  -4.01c
iter:  16 17:30:07   -82.971061c -6.86  -4.37c
iter:  17 17:30:12   -82.971054c -7.42c -4.42c

Converged after 17 iterations.

Dipole moment: (14.234996, 8.218579, -0.252939) |e|*Ang

Energy contributions relative to reference atoms: (reference = -13950194.172252)

Kinetic:       -300.955875
Potential:     +242.982496
External:        +0.000000
XC:             -27.920174
Entropy (-ST):   -0.262736
Local:           +3.053867
--------------------------
Free energy:    -83.102422
Extrapolated:   -82.971054

Showing only first 2 kpts
 Kpt  Band  Eigenvalues  Occupancy
  0   149     -0.15766    1.99973
  0   150      0.05683    1.99768
  0   151      0.32544    1.96649
  0   152      0.42392    1.91274

  1   149     -0.46326    1.99999
  1   150     -0.30462    1.99994
  1   151      0.23843    1.98582
  1   152      0.24506    1.98486


Fermi level: 0.73266

No gap

Forces in eV/Ang:
  0 Au   -0.00054   -0.00031   -0.00081
  1 Au   -0.00059   -0.00054   -0.00112
  2 Au   -0.00047   -0.00347    0.00205
  3 Au   -0.00076   -0.00024   -0.00112
  4 Au    0.00024    0.00014    0.00232
  5 Au   -0.00101    0.00025    0.00322
  6 Au   -0.00324    0.00133    0.00205
  7 Au   -0.00030   -0.00100    0.00322
  8 Au    0.00183    0.00106    0.00180
  9 Au   -0.00088    0.00329    0.00062
 10 Au    0.00058    0.00034   -0.00091
 11 Au    0.00025    0.00296    0.00265
 12 Au   -0.00311   -0.00133    0.00131
 13 Au    0.00269   -0.00127    0.00265
 14 Au    0.00025    0.00014    0.00381
 15 Au   -0.00029   -0.00016    0.00258
 16 Au    0.00241   -0.00241    0.00062
 17 Au   -0.00271   -0.00203    0.00131
 18 Au   -0.00373   -0.00216    0.00139
 19 Au    0.00092    0.00495    0.00394
 20 Au    0.00431   -0.00123    0.00187
 21 Au    0.00475   -0.00168    0.00394
 22 Au   -0.00214   -0.00124    0.00648
 23 Au    0.00162   -0.00029    0.00168
 24 Au    0.00109    0.00434    0.00187
 25 Au    0.00056    0.00155    0.00168
 26 Au   -0.00071   -0.00041    0.00136
 27 O     0.00190    0.00109    0.00193

Timing:                                      incl.     excl.
-------------------------------------------------------------------
Density initialized from wave functions:     5.190     4.927   0.5% |
 Symmetrize density:                         0.263     0.263   0.0% |
Forces:                                     16.594    16.594   1.6% ||
Hamiltonian:                                 4.053     0.047   0.0% |
 Atomic:                                     1.834     0.912   0.1% |
  XC Correction:                             0.922     0.922   0.1% |
 Calculate atomic Hamiltonians:              1.073     1.073   0.1% |
 Communicate:                                0.046     0.046   0.0% |
 Initialize Hamiltonian:                     0.000     0.000   0.0% |
 Poisson:                                    0.010     0.010   0.0% |
 XC 3D grid:                                 1.043     1.043   0.1% |
LCAO initialization:                         7.509     0.149   0.0% |
 LCAO eigensolver:                           0.439     0.001   0.0% |
  Calculate projections:                     0.003     0.003   0.0% |
  DenseAtomicCorrection:                     0.004     0.004   0.0% |
  Distribute overlap matrix:                 0.069     0.069   0.0% |
  Orbital Layouts:                           0.100     0.100   0.0% |
  Potential matrix:                          0.250     0.250   0.0% |
  Sum over cells:                            0.013     0.013   0.0% |
 LCAO to grid:                               6.689     6.689   0.6% |
 Set positions (LCAO WFS):                   0.232     0.081   0.0% |
  Basic WFS set positions:                   0.002     0.002   0.0% |
  Basis functions set positions:             0.000     0.000   0.0% |
  P tci:                                     0.092     0.092   0.0% |
  ST tci:                                    0.029     0.029   0.0% |
  mktci:                                     0.027     0.027   0.0% |
PWDescriptor:                                0.035     0.035   0.0% |
Redistribute:                                0.019     0.019   0.0% |
SCF-cycle:                                 992.784     0.513   0.0% |
 Davidson:                                 858.175   153.417  14.9% |-----|
  Apply H:                                 101.288    98.677   9.6% |---|
   HMM T:                                    2.610     2.610   0.3% |
  Subspace diag:                           149.160     0.073   0.0% |
   calc_h_matrix:                          116.246    15.353   1.5% ||
    Apply H:                               100.893    98.354   9.5% |---|
     HMM T:                                  2.539     2.539   0.2% |
   diagonalize:                              7.900     7.900   0.8% |
   rotate_psi:                              24.940    24.940   2.4% ||
  calc. matrices:                          292.849    92.288   8.9% |---|
   Apply H:                                200.561   195.558  18.9% |-------|
    HMM T:                                   5.003     5.003   0.5% |
  diagonalize:                             112.567   112.567  10.9% |---|
  rotate_psi:                               48.895    48.895   4.7% |-|
 Density:                                   75.620     0.005   0.0% |
  Atomic density matrices:                   0.569     0.569   0.1% |
  Mix:                                      19.893    19.893   1.9% ||
  Multipole moments:                         0.036     0.036   0.0% |
  Pseudo density:                           55.117    51.280   5.0% |-|
   Symmetrize density:                       3.837     3.837   0.4% |
 Hamiltonian:                               54.515     0.634   0.1% |
  Atomic:                                   24.717    12.312   1.2% |
   XC Correction:                           12.404    12.404   1.2% |
  Calculate atomic Hamiltonians:            14.390    14.390   1.4% ||
  Communicate:                               0.567     0.567   0.1% |
  Poisson:                                   0.168     0.168   0.0% |
  XC 3D grid:                               14.039    14.039   1.4% ||
 Orthonormalize:                             3.961     0.007   0.0% |
  calc_s_matrix:                             0.514     0.514   0.0% |
  inverse-cholesky:                          0.202     0.202   0.0% |
  projections:                               2.324     2.324   0.2% |
  rotate_psi_s:                              0.915     0.915   0.1% |
Set symmetry:                                0.002     0.002   0.0% |
Other:                                       6.884     6.884   0.7% |
-------------------------------------------------------------------
Total:                                              1033.071 100.0%

Memory usage: 1.08 GiB
Date: Thu Mar  9 17:30:14 2023
