
  ___ ___ ___ _ _ _  
 |   |   |_  | | | | 
 | | | | | . | | | | 
 |__ |  _|___|_____|  22.8.0
 |___|_|             

User:   gotols@vera43-1
Date:   Fri Mar 10 12:56:16 2023
Arch:   x86_64
Pid:    26464
CWD:    /cephyr/users/gotols/Vera/TIF320-Computational-materials-and-molecular-physics-Assignments
Python: 3.10.4
gpaw:   /apps/Arch/software/GPAW/22.8.0-foss-2022a/lib/python3.10/site-packages/gpaw
_gpaw:  /apps/Arch/software/GPAW/22.8.0-foss-2022a/lib/python3.10/site-packages/
        _gpaw.cpython-310-x86_64-linux-gnu.so
ase:    /apps/Arch/software/ASE/3.22.1-foss-2022a/lib/python3.10/site-packages/ase (version 3.22.1)
numpy:  /apps/Arch/software/SciPy-bundle/2022.05-foss-2022a/lib/python3.10/site-packages/numpy (version 1.22.3)
scipy:  /apps/Arch/software/SciPy-bundle/2022.05-foss-2022a/lib/python3.10/site-packages/scipy (version 1.8.1)
libxc:  5.2.3
units:  Angstrom and eV
cores: 32
OpenMP: False
OMP_NUM_THREADS: 1

Input parameters:
  kpts: [4 4 1]
  mode: {ecut: 450.00000000000006,
         name: pw}
  xc: PBE

System changes: positions, numbers, cell, pbc, initial_charges, initial_magmoms 

Initialize ...

species:
  Rh:
    name: Rhodium
    id: 4e1d209aee696a641de1ffa1459b299f
    Z: 45.0
    valence: 15
    core: 30
    charge: 0.0
    file: /apps/Common/software/GPAW-setups/0.9.20000/Rh.PBE.gz
    compensation charges: {type: gauss,
                           rc: 0.38,
                           lmax: 2}
    cutoffs: {filter: 2.48,
              core: 2.35}
    valence states:
      #              energy  rcut
      - 5s(1.00)    -4.297   1.270
      - 4p(6.00)   -50.429   1.381
      - 5p(0.00)    -0.852   1.381
      - 4d(8.00)    -5.942   1.244
      -  s          22.915   1.270
      -  d          21.270   1.244
  
    # Using partial waves for Rh as LCAO basis

  O:
    name: Oxygen
    id: 32ecd46bf208036f09c70b0ec9a88b78
    Z: 8.0
    valence: 6
    core: 2
    charge: 0.0
    file: /apps/Common/software/GPAW-setups/0.9.20000/O.PBE.gz
    compensation charges: {type: gauss,
                           rc: 0.21,
                           lmax: 2}
    cutoffs: {filter: 1.17,
              core: 0.83}
    valence states:
      #              energy  rcut
      - 2s(2.00)   -23.961   0.688
      - 2p(4.00)    -9.029   0.598
      -  s           3.251   0.688
      -  p          18.182   0.598
      -  d           0.000   0.619
  
    # Using partial waves for O as LCAO basis

Reference energy: -3515676.321306  # eV

Spin-paired calculation

Convergence criteria:
 Maximum [total energy] change in last 3 cyles: 0.0005 eV / electron
 Maximum integral of absolute [dens]ity change: 0.0001 electrons / valence electron
 Maximum integral of absolute [eigenst]ate change: 4e-08 eV^2 / valence electron
 Maximum number of scf [iter]ations: 333
 (Square brackets indicate name in SCF output, whereas a 'c' in
 the SCF output indicates the quantity has converged.)

Symmetries present (total): 2

  ( 1  0  0)  ( 0  1  0)
  ( 0  1  0)  ( 1  0  0)
  ( 0  0  1)  ( 0  0  1)

16 k-points: 4 x 4 x 1 Monkhorst-Pack grid
6 k-points in the irreducible part of the Brillouin zone
       k-points in crystal coordinates                weights
   0:     0.12500000   -0.12500000    0.00000000          2/16
   1:     0.12500000    0.12500000    0.00000000          2/16
   2:     0.37500000   -0.37500000    0.00000000          2/16
   3:     0.37500000   -0.12500000    0.00000000          4/16
   4:     0.37500000    0.12500000    0.00000000          4/16
   5:     0.37500000    0.37500000    0.00000000          2/16

Wave functions: Plane wave expansion
  Cutoff energy: 450.000 eV
  Number of coefficients (min, max): 20454, 20528
  Pulay-stress correction: 0.000000 eV/Ang^3 (de/decut=0.000000)
  Using FFTW library
  ScaLapack parameters: grid=1x1, blocksize=None
  Wavefunction extrapolation:
    Improved wavefunction reuse through dual PAW basis 

Occupation numbers: Fermi-Dirac:
  width: 0.1000  # eV
 

Eigensolver
   Davidson(niter=2) 

Densities:
  Coarse grid: 40*40*81 grid
  Fine grid: 80*80*162 grid
  Total Charge: 0.000000 

Density mixing:
  Method: separate
  Backend: pulay
  Linear mixing parameter: 0.05
  old densities: 5
  Damping of long wavelength oscillations: 50 

Hamiltonian:
  XC and Coulomb potentials evaluated on a 80*80*162 grid
  Using the PBE Exchange-Correlation functional
  External potential:
    NoExternalPotential
 

XC parameters: PBE with 2 nearest neighbor stencil

Memory estimate:
  Process memory now: 275.93 MiB
  Calculator: 336.92 MiB
    Density: 3.97 MiB
      Arrays: 1.63 MiB
      Localized functions: 1.70 MiB
      Mixer: 0.64 MiB
    Hamiltonian: 1.11 MiB
      Arrays: 1.07 MiB
      XC: 0.00 MiB
      Poisson: 0.00 MiB
      vbar: 0.04 MiB
    Wavefunctions: 331.84 MiB
      Arrays psit_nG: 235.86 MiB
      Eigensolver: 89.81 MiB
      Projections: 0.36 MiB
      Projectors: 0.59 MiB
      PW-descriptor: 5.22 MiB

Total number of cores used: 32
Parallelization over k-points: 2
Domain decomposition: 2 x 2 x 4

Number of atoms: 28
Number of atomic orbitals: 328
Number of bands in calculation: 251
Number of valence electrons: 411
Bands to converge: occupied

... initialized

Initializing position-dependent things.

Density initialized from atomic densities
Creating initial wave functions:
  251 bands from LCAO basis set

                                           
                                           
                                           
                                           
                                           
                                           
                                           
           O    Rh     Rh     Rh           
            Rh    Rh     Rh                
                 Rh     Rh     Rh          
       Rh    RRh   RRh    Rh               
                                           
        Rh     Rh   RRh    Rh    Rh        
                                           
                Rh    Rh     Rh            
           Rh    Rh     Rh                 
                                           
                                           
                                           
                                           

Positions:
   0 Rh     1.357645    0.783837    6.000000    ( 0.0000,  0.0000,  0.0000)
   1 Rh     4.072935    0.783837    6.000000    ( 0.0000,  0.0000,  0.0000)
   2 Rh     6.788225    0.783837    6.000000    ( 0.0000,  0.0000,  0.0000)
   3 Rh     2.715290    3.135347    6.000000    ( 0.0000,  0.0000,  0.0000)
   4 Rh     5.430580    3.135347    6.000000    ( 0.0000,  0.0000,  0.0000)
   5 Rh     8.145870    3.135347    6.000000    ( 0.0000,  0.0000,  0.0000)
   6 Rh     4.072935    5.486857    6.000000    ( 0.0000,  0.0000,  0.0000)
   7 Rh     6.788225    5.486857    6.000000    ( 0.0000,  0.0000,  0.0000)
   8 Rh     9.503515    5.486857    6.000000    ( 0.0000,  0.0000,  0.0000)
   9 Rh    -0.000000    1.567673    8.217025    ( 0.0000,  0.0000,  0.0000)
  10 Rh     2.715290    1.567673    8.217025    ( 0.0000,  0.0000,  0.0000)
  11 Rh     5.430580    1.567673    8.217025    ( 0.0000,  0.0000,  0.0000)
  12 Rh     1.357645    3.919184    8.217025    ( 0.0000,  0.0000,  0.0000)
  13 Rh     4.072935    3.919184    8.217025    ( 0.0000,  0.0000,  0.0000)
  14 Rh     6.788225    3.919184    8.217025    ( 0.0000,  0.0000,  0.0000)
  15 Rh     2.715290    6.270694    8.217025    ( 0.0000,  0.0000,  0.0000)
  16 Rh     5.430580    6.270694    8.217025    ( 0.0000,  0.0000,  0.0000)
  17 Rh     8.145870    6.270694    8.217025    ( 0.0000,  0.0000,  0.0000)
  18 Rh     0.000000    0.000000   10.434050    ( 0.0000,  0.0000,  0.0000)
  19 Rh     2.715290    0.000000   10.434050    ( 0.0000,  0.0000,  0.0000)
  20 Rh     5.430580    0.000000   10.434050    ( 0.0000,  0.0000,  0.0000)
  21 Rh     1.357645    2.351510   10.434050    ( 0.0000,  0.0000,  0.0000)
  22 Rh     4.072935    2.351510   10.434050    ( 0.0000,  0.0000,  0.0000)
  23 Rh     6.788225    2.351510   10.434050    ( 0.0000,  0.0000,  0.0000)
  24 Rh     2.715290    4.703020   10.434050    ( 0.0000,  0.0000,  0.0000)
  25 Rh     5.430580    4.703020   10.434050    ( 0.0000,  0.0000,  0.0000)
  26 Rh     8.145870    4.703020   10.434050    ( 0.0000,  0.0000,  0.0000)
  27 O      1.357645    0.783837   12.434050    ( 0.0000,  0.0000,  0.0000)

Unit cell:
           periodic     x           y           z      points  spacing
  1. axis:    yes    8.145870    0.000000    0.000000    40     0.1764
  2. axis:    yes    4.072935    7.054530    0.000000    40     0.1764
  3. axis:    no     0.000000    0.000000   16.434050    81     0.2029

  Lengths:   8.145870   8.145870  16.434050
  Angles:   90.000000  90.000000  60.000000

Effective grid spacing dv^(1/3) = 0.1939

     iter     time        total  log10-change:
                         energy  eigst   dens
iter:   1 12:56:33  -202.801996
iter:   2 12:56:37  -198.927438  -1.36  -1.34
iter:   3 12:56:42  -194.129618  -1.46  -1.37
iter:   4 12:56:46  -194.802752  -1.93  -1.45
iter:   5 12:56:50  -194.574041  -1.92  -1.44
iter:   6 12:56:55  -187.490706  -1.12  -1.46
iter:   7 12:56:59  -187.297702  -2.41  -2.06
iter:   8 12:57:03  -187.240339  -3.05  -2.13
iter:   9 12:57:07  -187.143016c -3.24  -2.16
iter:  10 12:57:12  -187.353521  -2.95  -2.28
iter:  11 12:57:16  -187.040394  -3.10  -2.25
iter:  12 12:57:20  -187.034864  -3.96  -2.83
iter:  13 12:57:25  -187.033747c -4.30  -2.91
iter:  14 12:57:29  -187.031672c -4.13  -2.96
iter:  15 12:57:33  -187.032243c -4.63  -3.20
iter:  16 12:57:37  -187.033841c -5.10  -3.31
iter:  17 12:57:42  -187.032643c -4.87  -3.20
iter:  18 12:57:46  -187.032747c -5.42  -3.52
iter:  19 12:57:50  -187.032572c -5.89  -3.66
iter:  20 12:57:55  -187.032201c -5.80  -3.73
iter:  21 12:57:59  -187.032041c -5.97  -4.02c
iter:  22 12:58:03  -187.032048c -6.77  -4.23c
iter:  23 12:58:07  -187.032091c -6.78  -4.23c
iter:  24 12:58:12  -187.032099c -7.03  -4.34c
iter:  25 12:58:16  -187.032067c -7.38  -4.37c
iter:  26 12:58:20  -187.032073c -7.63c -4.44c

Converged after 26 iterations.

Dipole moment: (-1.706394, -0.985187, -0.602979) |e|*Ang

Energy contributions relative to reference atoms: (reference = -3515676.321306)

Kinetic:       -201.749223
Potential:     +117.827392
External:        +0.000000
XC:            -100.185108
Entropy (-ST):   -1.657363
Local:           -2.096453
--------------------------
Free energy:   -187.860755
Extrapolated:  -187.032073

Showing only first 2 kpts
 Kpt  Band  Eigenvalues  Occupancy
  0   203      1.33302    1.32537
  0   204      1.39259    1.03977
  0   205      1.42638    0.87152
  0   206      1.43729    0.81832

  1   203      1.29455    1.48534
  1   204      1.34166    1.28621
  1   205      1.36100    1.19516
  1   206      1.38556    1.07478


Fermi level: 1.40054

No gap

Forces in eV/Ang:
  0 Rh   -0.00031   -0.00018    0.45587
  1 Rh   -0.00530   -0.04109    0.45237
  2 Rh    0.00803   -0.03970    0.45212
  3 Rh   -0.03824    0.01595    0.45237
  4 Rh    0.00129    0.00075    0.47289
  5 Rh    0.03756    0.01516    0.44886
  6 Rh   -0.03037    0.02680    0.45212
  7 Rh    0.03191    0.02495    0.44886
  8 Rh    0.01008    0.00582    0.14863
  9 Rh   -0.01436    0.01062   -0.06975
 10 Rh    0.01783    0.01029   -0.07779
 11 Rh    0.00074    0.02893    0.04592
 12 Rh    0.00103   -0.07357    0.22860
 13 Rh    0.02542   -0.01383    0.04592
 14 Rh   -0.02231   -0.01288    0.04654
 15 Rh    0.06127    0.03538    0.23623
 16 Rh    0.00202   -0.01774   -0.06975
 17 Rh   -0.06320    0.03768    0.22860
 18 Rh    0.47486    0.27416    0.80101
 19 Rh   -0.48326    0.27201    0.81446
 20 Rh   -0.00370    0.00468   -0.50867
 21 Rh   -0.00606   -0.55452    0.81446
 22 Rh    0.14227    0.08214   -0.47114
 23 Rh   -0.14438    0.07804   -0.47580
 24 Rh    0.00221   -0.00555   -0.50867
 25 Rh   -0.00460   -0.16406   -0.47580
 26 Rh   -0.00357   -0.00206   -0.50884
 27 O     0.00458    0.00265   -3.94663

System changes: positions 

Initializing position-dependent things.

Density initialized from wave functions
                                           
                                           
                                           
                                           
                                           
                                           
                Rh            Rh           
           O           Rh                  
            Rh   RRh    RRh    Rh          
       Rh     Rh    Rh                     
             Rh    Rh     Rh               
        Rh     Rh   RRh    Rh    Rh        
                                           
                Rh    Rh     Rh            
           Rh    Rh     Rh                 
                                           
                                           
                                           
                                           

Positions:
   0 Rh     1.357619    0.783821    6.038984    ( 0.0000,  0.0000,  0.0000)
   1 Rh     4.072482    0.780323    6.038685    ( 0.0000,  0.0000,  0.0000)
   2 Rh     6.788912    0.780442    6.038664    ( 0.0000,  0.0000,  0.0000)
   3 Rh     2.712020    3.136711    6.038685    ( 0.0000,  0.0000,  0.0000)
   4 Rh     5.430691    3.135411    6.040440    ( 0.0000,  0.0000,  0.0000)
   5 Rh     8.149082    3.136644    6.038385    ( 0.0000,  0.0000,  0.0000)
   6 Rh     4.070338    5.489149    6.038664    ( 0.0000,  0.0000,  0.0000)
   7 Rh     6.790954    5.488990    6.038385    ( 0.0000,  0.0000,  0.0000)
   8 Rh     9.504377    5.487355    6.012711    ( 0.0000,  0.0000,  0.0000)
   9 Rh    -0.001228    1.568582    8.211060    ( 0.0000,  0.0000,  0.0000)
  10 Rh     2.716814    1.568554    8.210372    ( 0.0000,  0.0000,  0.0000)
  11 Rh     5.430643    1.570147    8.220952    ( 0.0000,  0.0000,  0.0000)
  12 Rh     1.357733    3.912892    8.236574    ( 0.0000,  0.0000,  0.0000)
  13 Rh     4.075109    3.918001    8.220952    ( 0.0000,  0.0000,  0.0000)
  14 Rh     6.786317    3.918082    8.221005    ( 0.0000,  0.0000,  0.0000)
  15 Rh     2.720530    6.273719    8.237226    ( 0.0000,  0.0000,  0.0000)
  16 Rh     5.430753    6.269176    8.211060    ( 0.0000,  0.0000,  0.0000)
  17 Rh     8.140465    6.273916    8.236574    ( 0.0000,  0.0000,  0.0000)
  18 Rh     0.040609    0.023445   10.502550    ( 0.0000,  0.0000,  0.0000)
  19 Rh     2.673963    0.023261   10.503700    ( 0.0000,  0.0000,  0.0000)
  20 Rh     5.430263    0.000401   10.390551    ( 0.0000,  0.0000,  0.0000)
  21 Rh     1.357126    2.304089   10.503700    ( 0.0000,  0.0000,  0.0000)
  22 Rh     4.085102    2.358535   10.393760    ( 0.0000,  0.0000,  0.0000)
  23 Rh     6.775878    2.358184   10.393361    ( 0.0000,  0.0000,  0.0000)
  24 Rh     2.715479    4.702546   10.390551    ( 0.0000,  0.0000,  0.0000)
  25 Rh     5.430186    4.688990   10.393361    ( 0.0000,  0.0000,  0.0000)
  26 Rh     8.145565    4.702844   10.390535    ( 0.0000,  0.0000,  0.0000)
  27 O      1.358037    0.784063   12.096547    ( 0.0000,  0.0000,  0.0000)

Unit cell:
           periodic     x           y           z      points  spacing
  1. axis:    yes    8.145870    0.000000    0.000000    40     0.1764
  2. axis:    yes    4.072935    7.054530    0.000000    40     0.1764
  3. axis:    no     0.000000    0.000000   16.434050    81     0.2029

  Lengths:   8.145870   8.145870  16.434050
  Angles:   90.000000  90.000000  60.000000

Effective grid spacing dv^(1/3) = 0.1939

     iter     time        total  log10-change:
                         energy  eigst   dens
iter:   1 12:58:26  -199.878328  -1.32
iter:   2 12:58:30  -224.843561  -1.17  -1.53
iter:   3 12:58:34  -195.226983  -1.41  -1.30
iter:   4 12:58:39  -189.359059  -2.59  -1.63
iter:   5 12:58:43  -189.083323  -2.98  -2.05
iter:   6 12:58:47  -188.770872  -3.17  -2.18
iter:   7 12:58:51  -188.725135  -3.76  -2.48
iter:   8 12:58:56  -188.712557c -3.64  -2.56
iter:   9 12:59:00  -188.640039c -3.21  -2.54
iter:  10 12:59:05  -188.636387c -4.20  -2.86
iter:  11 12:59:09  -188.635570c -4.63  -2.93
iter:  12 12:59:14  -188.632582c -4.14  -2.99
iter:  13 12:59:18  -188.631835c -4.97  -3.17
iter:  14 12:59:22  -188.631683c -5.68  -3.27
iter:  15 12:59:26  -188.630745c -5.18  -3.33
iter:  16 12:59:31  -188.630745c -5.84  -3.71
iter:  17 12:59:35  -188.630705c -6.42  -3.88
iter:  18 12:59:39  -188.630736c -6.45  -3.94
iter:  19 12:59:44  -188.630806c -6.26  -3.96
iter:  20 12:59:48  -188.630749c -6.70  -3.97
iter:  21 12:59:52  -188.630749c -7.07  -4.16c
iter:  22 12:59:56  -188.630700c -6.58  -4.24c
iter:  23 13:00:01  -188.630695c -7.26  -4.62c
iter:  24 13:00:05  -188.630692c -8.07c -4.80c

Converged after 24 iterations.

Dipole moment: (-5.234648, -3.022225, -0.323176) |e|*Ang

Energy contributions relative to reference atoms: (reference = -3515676.321306)

Kinetic:       -178.850266
Potential:      +98.216996
External:        +0.000000
XC:            -105.029846
Entropy (-ST):   -1.632416
Local:           -2.151368
--------------------------
Free energy:   -189.446901
Extrapolated:  -188.630692

Showing only first 2 kpts
 Kpt  Band  Eigenvalues  Occupancy
  0   203      1.46663    1.28093
  0   204      1.51966    1.02353
  0   205      1.53492    0.94730
  0   206      1.55766    0.83509

  1   203      1.41329    1.50455
  1   204      1.45851    1.31789
  1   205      1.51205    1.06153
  1   206      1.51798    1.03196


Fermi level: 1.52437

No gap

Forces in eV/Ang:
  0 Rh   -0.00157   -0.00090    0.17025
  1 Rh    0.02886   -0.05358    0.21318
  2 Rh   -0.02583   -0.05259    0.22084
  3 Rh   -0.03197    0.05179    0.21318
  4 Rh    0.00190    0.00109    0.17644
  5 Rh    0.03397    0.04833    0.21539
  6 Rh   -0.05846    0.00393    0.22084
  7 Rh    0.05884    0.00525    0.21539
  8 Rh    0.00600    0.00346    0.11757
  9 Rh    0.09516   -0.05390    0.11772
 10 Rh   -0.09885   -0.05707    0.12422
 11 Rh    0.00122   -0.08158   -0.00839
 12 Rh    0.00032   -0.11935    0.18589
 13 Rh   -0.07004    0.04185   -0.00839
 14 Rh    0.07106    0.04103   -0.01142
 15 Rh    0.10935    0.06314    0.19094
 16 Rh    0.00090    0.10936    0.11772
 17 Rh   -0.10320    0.05995    0.18589
 18 Rh   -0.12131   -0.07004    0.27069
 19 Rh    0.12022   -0.06872    0.27812
 20 Rh   -0.00828    0.00633   -0.07954
 21 Rh    0.00060    0.13847    0.27812
 22 Rh    0.10642    0.06144   -0.14131
 23 Rh   -0.11052    0.05918   -0.13730
 24 Rh    0.00134   -0.01033   -0.07954
 25 Rh   -0.00401   -0.12530   -0.13730
 26 Rh   -0.00789   -0.00456   -0.08327
 27 O     0.00560    0.00323   -2.69560

System changes: positions 

Initializing position-dependent things.

Density initialized from wave functions
                                           
                                           
                                           
                                           
                                           
                                           
                Rh     Rh     Rh           
           O                               
            Rh   RRh    RRh    Rh          
       Rh    RRh   RRh    Rh               
                                           
        Rh     Rh   RRh    Rh    Rh        
                                           
               Rh     Rh     Rh            
           Rh    Rh     Rh                 
                                           
                                           
                                           
                                           

Positions:
   0 Rh     1.357488    0.783746    6.054378    ( 0.0000,  0.0000,  0.0000)
   1 Rh     4.074862    0.775762    6.057631    ( 0.0000,  0.0000,  0.0000)
   2 Rh     6.786791    0.775968    6.058245    ( 0.0000,  0.0000,  0.0000)
   3 Rh     2.709261    3.141053    6.057631    ( 0.0000,  0.0000,  0.0000)
   4 Rh     5.430852    3.135504    6.056395    ( 0.0000,  0.0000,  0.0000)
   5 Rh     8.152005    3.140696    6.057505    ( 0.0000,  0.0000,  0.0000)
   6 Rh     4.065403    5.489550    6.058245    ( 0.0000,  0.0000,  0.0000)
   7 Rh     6.795925    5.489495    6.057505    ( 0.0000,  0.0000,  0.0000)
   8 Rh     9.504903    5.487658    6.022880    ( 0.0000,  0.0000,  0.0000)
   9 Rh     0.006628    1.564139    8.220634    ( 0.0000,  0.0000,  0.0000)
  10 Rh     2.708662    1.563847    8.220463    ( 0.0000,  0.0000,  0.0000)
  11 Rh     5.430747    1.563459    8.220384    ( 0.0000,  0.0000,  0.0000)
  12 Rh     1.357763    3.902784    8.252634    ( 0.0000,  0.0000,  0.0000)
  13 Rh     4.069369    3.921435    8.220384    ( 0.0000,  0.0000,  0.0000)
  14 Rh     6.792151    3.921450    8.220187    ( 0.0000,  0.0000,  0.0000)
  15 Rh     2.729774    6.279056    8.253726    ( 0.0000,  0.0000,  0.0000)
  16 Rh     5.430833    6.278201    8.220634    ( 0.0000,  0.0000,  0.0000)
  17 Rh     8.131727    6.278995    8.252634    ( 0.0000,  0.0000,  0.0000)
  18 Rh     0.031863    0.018396   10.527237    ( 0.0000,  0.0000,  0.0000)
  19 Rh     2.682595    0.018316   10.529040    ( 0.0000,  0.0000,  0.0000)
  20 Rh     5.429566    0.000939   10.382537    ( 0.0000,  0.0000,  0.0000)
  21 Rh     1.357159    2.314038   10.529040    ( 0.0000,  0.0000,  0.0000)
  22 Rh     4.094327    2.363861   10.380725    ( 0.0000,  0.0000,  0.0000)
  23 Rh     6.766306    2.363311   10.380646    ( 0.0000,  0.0000,  0.0000)
  24 Rh     2.715596    4.701673   10.382537    ( 0.0000,  0.0000,  0.0000)
  25 Rh     5.429841    4.678137   10.380646    ( 0.0000,  0.0000,  0.0000)
  26 Rh     8.144900    4.702460   10.382212    ( 0.0000,  0.0000,  0.0000)
  27 O      1.358514    0.784338   11.861909    ( 0.0000,  0.0000,  0.0000)

Unit cell:
           periodic     x           y           z      points  spacing
  1. axis:    yes    8.145870    0.000000    0.000000    40     0.1764
  2. axis:    yes    4.072935    7.054530    0.000000    40     0.1764
  3. axis:    no     0.000000    0.000000   16.434050    81     0.2029

  Lengths:   8.145870   8.145870  16.434050
  Angles:   90.000000  90.000000  60.000000

Effective grid spacing dv^(1/3) = 0.1939

     iter     time        total  log10-change:
                         energy  eigst   dens
iter:   1 13:00:10  -198.696947  -1.72
iter:   2 13:00:15  -230.658017  -1.13  -1.56
iter:   3 13:00:19  -190.865128  -1.53  -1.28
iter:   4 13:00:23  -189.868556  -2.72  -1.90
iter:   5 13:00:27  -189.162556  -2.84  -2.08
iter:   6 13:00:32  -189.100139  -3.65  -2.56
iter:   7 13:00:36  -189.088094c -4.38  -2.75
iter:   8 13:00:40  -189.063734c -3.79  -2.80
iter:   9 13:00:44  -189.057823c -3.96  -3.03
iter:  10 13:00:49  -189.058513c -4.81  -3.18
iter:  11 13:00:53  -189.057406c -5.27  -3.17
iter:  12 13:00:57  -189.057073c -5.29  -3.29
iter:  13 13:01:01  -189.056899c -5.09  -3.38
iter:  14 13:01:06  -189.056965c -5.73  -3.60
iter:  15 13:01:10  -189.056804c -6.36  -3.64
iter:  16 13:01:14  -189.056751c -6.09  -3.69
iter:  17 13:01:19  -189.056523c -5.74  -3.81
iter:  18 13:01:23  -189.056539c -6.49  -3.94
iter:  19 13:01:27  -189.056494c -6.94  -4.01c
iter:  20 13:01:31  -189.056472c -7.33  -4.15c
iter:  21 13:01:36  -189.056499c -6.86  -4.24c
iter:  22 13:01:40  -189.056475c -7.08  -4.33c
iter:  23 13:01:44  -189.056478c -7.78c -4.48c

Converged after 23 iterations.

Dipole moment: (-4.422248, -2.553186, -0.171754) |e|*Ang

Energy contributions relative to reference atoms: (reference = -3515676.321306)

Kinetic:       -159.591139
Potential:      +81.963286
External:        +0.000000
XC:            -108.412524
Entropy (-ST):   -1.642724
Local:           -2.194738
--------------------------
Free energy:   -189.877840
Extrapolated:  -189.056478

Showing only first 2 kpts
 Kpt  Band  Eigenvalues  Occupancy
  0   203      1.56036    1.18693
  0   204      1.58893    1.04626
  0   205      1.61479    0.91717
  0   206      1.62788    0.85265

  1   203      1.51139    1.40865
  1   204      1.54095    1.27864
  1   205      1.59528    1.01455
  1   206      1.60176    0.98216


Fermi level: 1.59819

No gap

Forces in eV/Ang:
  0 Rh   -0.00034   -0.00020    0.07285
  1 Rh   -0.00456   -0.02155    0.14721
  2 Rh    0.00564   -0.02380    0.14852
  3 Rh   -0.02095    0.00682    0.14721
  4 Rh    0.00183    0.00106    0.10988
  5 Rh    0.02584    0.00521    0.14595
  6 Rh   -0.01779    0.01679    0.14852
  7 Rh    0.01743    0.01977    0.14595
  8 Rh    0.00197    0.00113    0.14380
  9 Rh   -0.01993    0.01360    0.03857
 10 Rh    0.01696    0.00979    0.04009
 11 Rh   -0.00092   -0.01118   -0.00916
 12 Rh    0.00361    0.02309    0.00250
 13 Rh   -0.01014    0.00479   -0.00916
 14 Rh    0.00821    0.00474   -0.00783
 15 Rh   -0.01490   -0.00860    0.00890
 16 Rh    0.00181   -0.02406    0.03857
 17 Rh    0.02181   -0.00842    0.00250
 18 Rh   -0.62857   -0.36290   -0.43460
 19 Rh    0.63693   -0.37218   -0.43978
 20 Rh   -0.00562    0.04036    0.07070
 21 Rh   -0.00385    0.73768   -0.43978
 22 Rh    0.08516    0.04917   -0.00984
 23 Rh   -0.08848    0.04785   -0.00623
 24 Rh    0.03215   -0.02505    0.07070
 25 Rh   -0.00280   -0.10056   -0.00623
 26 Rh   -0.03963   -0.02288    0.06477
 27 O    -0.00145   -0.00084   -0.19468

System changes: positions 

Initializing position-dependent things.

Density initialized from wave functions
                                           
                                           
                                           
                                           
                                           
                                           
                Rh     Rh     Rh           
           O                               
            Rh   RhRh   RRh    Rh          
       Rh    RRh   RRh    Rh               
                                           
        Rh     Rh   RRh    Rh    Rh        
                Rh           Rh            
                      Rh                   
           Rh     Rh    Rh                 
                                           
                                           
                                           
                                           

Positions:
   0 Rh     1.357428    0.783711    6.062781    ( 0.0000,  0.0000,  0.0000)
   1 Rh     4.075039    0.772942    6.073418    ( 0.0000,  0.0000,  0.0000)
   2 Rh     6.786760    0.772964    6.074297    ( 0.0000,  0.0000,  0.0000)
   3 Rh     2.706906    3.142616    6.073418    ( 0.0000,  0.0000,  0.0000)
   4 Rh     5.431046    3.135616    6.068123    ( 0.0000,  0.0000,  0.0000)
   5 Rh     8.154830    3.142052    6.073234    ( 0.0000,  0.0000,  0.0000)
   6 Rh     4.062787    5.491025    6.074297    ( 0.0000,  0.0000,  0.0000)
   7 Rh     6.798512    5.491264    6.073234    ( 0.0000,  0.0000,  0.0000)
   8 Rh     9.505164    5.487809    6.037383    ( 0.0000,  0.0000,  0.0000)
   9 Rh     0.006773    1.564252    8.226523    ( 0.0000,  0.0000,  0.0000)
  10 Rh     2.708173    1.563565    8.226636    ( 0.0000,  0.0000,  0.0000)
  11 Rh     5.430687    1.560801    8.219282    ( 0.0000,  0.0000,  0.0000)
  12 Rh     1.358084    3.902701    8.255815    ( 0.0000,  0.0000,  0.0000)
  13 Rh     4.067037    3.922713    8.219282    ( 0.0000,  0.0000,  0.0000)
  14 Rh     6.794323    3.922704    8.219141    ( 0.0000,  0.0000,  0.0000)
  15 Rh     2.730419    6.279428    8.257546    ( 0.0000,  0.0000,  0.0000)
  16 Rh     5.431004    6.278270    8.226523    ( 0.0000,  0.0000,  0.0000)
  17 Rh     8.131815    6.279315    8.255815    ( 0.0000,  0.0000,  0.0000)
  18 Rh    -0.027143   -0.015671   10.491982    ( 0.0000,  0.0000,  0.0000)
  19 Rh     2.742340   -0.016535   10.493435    ( 0.0000,  0.0000,  0.0000)
  20 Rh     5.428922    0.004598   10.388677    ( 0.0000,  0.0000,  0.0000)
  21 Rh     1.356850    2.383203   10.493435    ( 0.0000,  0.0000,  0.0000)
  22 Rh     4.103477    2.369143   10.378471    ( 0.0000,  0.0000,  0.0000)
  23 Rh     6.756791    2.368446   10.378802    ( 0.0000,  0.0000,  0.0000)
  24 Rh     2.718442    4.699285   10.388677    ( 0.0000,  0.0000,  0.0000)
  25 Rh     5.429530    4.667329   10.378802    ( 0.0000,  0.0000,  0.0000)
  26 Rh     8.141272    4.700366   10.387759    ( 0.0000,  0.0000,  0.0000)
  27 O      1.358482    0.784320   11.803681    ( 0.0000,  0.0000,  0.0000)

Unit cell:
           periodic     x           y           z      points  spacing
  1. axis:    yes    8.145870    0.000000    0.000000    40     0.1764
  2. axis:    yes    4.072935    7.054530    0.000000    40     0.1764
  3. axis:    no     0.000000    0.000000   16.434050    81     0.2029

  Lengths:   8.145870   8.145870  16.434050
  Angles:   90.000000  90.000000  60.000000

Effective grid spacing dv^(1/3) = 0.1939

     iter     time        total  log10-change:
                         energy  eigst   dens
iter:   1 13:01:50  -190.922411  -1.74
iter:   2 13:01:54  -193.801859  -2.01  -1.88
iter:   3 13:01:58  -189.687516  -2.43  -1.71
iter:   4 13:02:02  -189.201663  -3.50  -2.13
iter:   5 13:02:07  -189.187352  -4.16  -2.65
iter:   6 13:02:11  -189.176937c -4.41  -2.75
iter:   7 13:02:15  -189.168301c -4.06  -2.84
iter:   8 13:02:20  -189.166551c -4.21  -3.01
iter:   9 13:02:24  -189.167256c -4.81  -3.10
iter:  10 13:02:28  -189.165060c -5.08  -3.16
iter:  11 13:02:32  -189.164516c -5.77  -3.26
iter:  12 13:02:37  -189.163961c -4.86  -3.35
iter:  13 13:02:41  -189.164151c -5.58  -3.60
iter:  14 13:02:45  -189.163936c -6.08  -3.62
iter:  15 13:02:49  -189.163753c -5.92  -3.71
iter:  16 13:02:54  -189.163823c -6.54  -4.05c
iter:  17 13:02:58  -189.163699c -6.41  -3.94
iter:  18 13:03:02  -189.163731c -7.05  -4.13c
iter:  19 13:03:06  -189.163731c -7.34  -4.32c
iter:  20 13:03:11  -189.163760c -7.11  -4.43c
iter:  21 13:03:15  -189.163761c -7.68c -4.59c

Converged after 21 iterations.

Dipole moment: (0.194321, 0.112191, -0.184061) |e|*Ang

Energy contributions relative to reference atoms: (reference = -3515676.321306)

Kinetic:       -154.289091
Potential:      +77.586411
External:        +0.000000
XC:            -109.443666
Entropy (-ST):   -1.629653
Local:           -2.202589
--------------------------
Free energy:   -189.978588
Extrapolated:  -189.163761

Showing only first 2 kpts
 Kpt  Band  Eigenvalues  Occupancy
  0   203      1.56470    1.16825
  0   204      1.57709    1.10751
  0   205      1.61218    0.93259
  0   206      1.62494    0.86945

  1   203      1.50901    1.42052
  1   204      1.55181    1.23015
  1   205      1.58805    1.05307
  1   206      1.60734    0.95671


Fermi level: 1.59868

No gap

Forces in eV/Ang:
  0 Rh    0.00136    0.00078    0.03862
  1 Rh   -0.01504    0.00459    0.03850
  2 Rh    0.01622   -0.00053    0.03891
  3 Rh   -0.00355   -0.01532    0.03850
  4 Rh    0.00107    0.00062    0.04246
  5 Rh    0.00959   -0.01178    0.03836
  6 Rh    0.00765    0.01432    0.03891
  7 Rh   -0.00541    0.01419    0.03836
  8 Rh   -0.00192   -0.00111    0.03225
  9 Rh   -0.03018    0.01845    0.02778
 10 Rh    0.03129    0.01807    0.02389
 11 Rh   -0.00213    0.03662    0.05019
 12 Rh    0.00058    0.11470   -0.04355
 13 Rh    0.03064   -0.02015    0.05019
 14 Rh   -0.03293   -0.01901    0.04943
 15 Rh   -0.09903   -0.05717   -0.04077
 16 Rh    0.00089   -0.03536    0.02778
 17 Rh    0.09962   -0.05684   -0.04355
 18 Rh    0.26991    0.15583    0.04449
 19 Rh   -0.27443    0.15180    0.04387
 20 Rh    0.00217    0.03264    0.00612
 21 Rh   -0.00576   -0.31357    0.04387
 22 Rh   -0.06326   -0.03652    0.03623
 23 Rh    0.05923   -0.03359    0.03552
 24 Rh    0.02935   -0.01444    0.00612
 25 Rh    0.00053    0.06809    0.03552
 26 Rh   -0.03176   -0.01833    0.00729
 27 O     0.00436    0.00252   -0.77616

System changes: positions 

Initializing position-dependent things.

Density initialized from wave functions
                                           
                                           
                                           
                                           
                                           
                                           
                Rh     Rh     Rh           
           ORh                             
                 RhRh   RRh    Rh          
       Rh    RRh   RRh    Rh               
                                           
        Rh     Rh   RRh    Rh    Rh        
                Rh    Rh     Rh            
                                           
           Rh     Rh    Rh                 
                                           
                                           
                                           
                                           

Positions:
   0 Rh     1.357530    0.783770    6.069406    ( 0.0000,  0.0000,  0.0000)
   1 Rh     4.073572    0.772442    6.082960    ( 0.0000,  0.0000,  0.0000)
   2 Rh     6.788373    0.771942    6.083923    ( 0.0000,  0.0000,  0.0000)
   3 Rh     2.705741    3.141596    6.082960    ( 0.0000,  0.0000,  0.0000)
   4 Rh     5.431210    3.135711    6.076553    ( 0.0000,  0.0000,  0.0000)
   5 Rh     8.156702    3.141268    6.082710    ( 0.0000,  0.0000,  0.0000)
   6 Rh     4.062707    5.492932    6.083923    ( 0.0000,  0.0000,  0.0000)
   7 Rh     6.798769    5.493277    6.082710    ( 0.0000,  0.0000,  0.0000)
   8 Rh     9.505088    5.487765    6.045946    ( 0.0000,  0.0000,  0.0000)
   9 Rh     0.003399    1.566372    8.230329    ( 0.0000,  0.0000,  0.0000)
  10 Rh     2.711528    1.565502    8.230162    ( 0.0000,  0.0000,  0.0000)
  11 Rh     5.430470    1.563511    8.223239    ( 0.0000,  0.0000,  0.0000)
  12 Rh     1.358277    3.913300    8.252437    ( 0.0000,  0.0000,  0.0000)
  13 Rh     4.069275    3.921170    8.223239    ( 0.0000,  0.0000,  0.0000)
  14 Rh     6.791818    3.921258    8.223087    ( 0.0000,  0.0000,  0.0000)
  15 Rh     2.721464    6.274258    8.254664    ( 0.0000,  0.0000,  0.0000)
  16 Rh     5.431153    6.274288    8.230329    ( 0.0000,  0.0000,  0.0000)
  17 Rh     8.141091    6.274183    8.252437    ( 0.0000,  0.0000,  0.0000)
  18 Rh    -0.028459   -0.016431   10.479454    ( 0.0000,  0.0000,  0.0000)
  19 Rh     2.743592   -0.018006   10.480664    ( 0.0000,  0.0000,  0.0000)
  20 Rh     5.428881    0.008971   10.391458    ( 0.0000,  0.0000,  0.0000)
  21 Rh     1.356202    2.385023   10.480664    ( 0.0000,  0.0000,  0.0000)
  22 Rh     4.101595    2.368057   10.380681    ( 0.0000,  0.0000,  0.0000)
  23 Rh     6.758197    2.367554   10.381089    ( 0.0000,  0.0000,  0.0000)
  24 Rh     2.722209    4.697064   10.391458    ( 0.0000,  0.0000,  0.0000)
  25 Rh     5.429460    4.668993   10.381089    ( 0.0000,  0.0000,  0.0000)
  26 Rh     8.137004    4.697902   10.390406    ( 0.0000,  0.0000,  0.0000)
  27 O      1.358801    0.784504   11.725988    ( 0.0000,  0.0000,  0.0000)

Unit cell:
           periodic     x           y           z      points  spacing
  1. axis:    yes    8.145870    0.000000    0.000000    40     0.1764
  2. axis:    yes    4.072935    7.054530    0.000000    40     0.1764
  3. axis:    no     0.000000    0.000000   16.434050    81     0.2029

  Lengths:   8.145870   8.145870  16.434050
  Angles:   90.000000  90.000000  60.000000

Effective grid spacing dv^(1/3) = 0.1939

     iter     time        total  log10-change:
                         energy  eigst   dens
iter:   1 13:03:20  -190.110707  -2.46
iter:   2 13:03:25  -193.892571  -2.25  -2.07
iter:   3 13:03:29  -189.411497  -2.52  -1.71
iter:   4 13:03:33  -189.225832  -3.91  -2.34
iter:   5 13:03:38  -189.199539  -4.10  -2.77
iter:   6 13:03:42  -189.196653c -4.84  -3.13
iter:   7 13:03:46  -189.195173c -5.27  -3.23
iter:   8 13:03:50  -189.193367c -4.48  -3.32
iter:   9 13:03:55  -189.193069c -5.23  -3.45
iter:  10 13:03:59  -189.192768c -5.82  -3.54
iter:  11 13:04:03  -189.192724c -5.64  -3.66
iter:  12 13:04:08  -189.192761c -6.08  -3.87
iter:  13 13:04:12  -189.192738c -6.62  -3.88
iter:  14 13:04:16  -189.192700c -6.82  -4.04c
iter:  15 13:04:21  -189.192676c -6.77  -4.24c
iter:  16 13:04:25  -189.192685c -7.43c -4.37c

Converged after 16 iterations.

Dipole moment: (-0.328619, -0.189729, -0.145227) |e|*Ang

Energy contributions relative to reference atoms: (reference = -3515676.321306)

Kinetic:       -146.169755
Potential:      +70.810446
External:        +0.000000
XC:            -110.812700
Entropy (-ST):   -1.626306
Local:           -2.207523
--------------------------
Free energy:   -190.005838
Extrapolated:  -189.192685

Showing only first 2 kpts
 Kpt  Band  Eigenvalues  Occupancy
  0   203      1.58427    1.17638
  0   204      1.59498    1.12406
  0   205      1.62986    0.95031
  0   206      1.64786    0.86118

  1   203      1.52912    1.42519
  1   204      1.57607    1.21580
  1   205      1.61218    1.03867
  1   206      1.62859    0.95668


Fermi level: 1.61992

No gap

Forces in eV/Ang:
  0 Rh   -0.00027   -0.00016    0.02899
  1 Rh    0.00307    0.01861   -0.02848
  2 Rh   -0.00066    0.01716   -0.02559
  3 Rh    0.01765   -0.00665   -0.02848
  4 Rh    0.00170    0.00098   -0.02238
  5 Rh   -0.01584   -0.00520   -0.02634
  6 Rh    0.01453   -0.00915   -0.02559
  7 Rh   -0.01242   -0.01112   -0.02634
  8 Rh   -0.00097   -0.00056   -0.09575
  9 Rh    0.01026   -0.00590   -0.02162
 10 Rh   -0.01118   -0.00645   -0.01912
 11 Rh    0.00097    0.00543    0.06985
 12 Rh   -0.00246    0.00569    0.01692
 13 Rh    0.00519   -0.00188    0.06985
 14 Rh   -0.00311   -0.00180    0.06632
 15 Rh   -0.00647   -0.00373    0.01341
 16 Rh    0.00002    0.01183   -0.02162
 17 Rh    0.00370   -0.00497    0.01692
 18 Rh    0.01850    0.01068   -0.07788
 19 Rh   -0.02066    0.01047   -0.08192
 20 Rh    0.00213   -0.01520   -0.00341
 21 Rh   -0.00126   -0.02313   -0.08192
 22 Rh   -0.03319   -0.01916    0.06484
 23 Rh    0.02716   -0.01712    0.06423
 24 Rh   -0.01209    0.00945   -0.00341
 25 Rh   -0.00124    0.03208    0.06423
 26 Rh    0.01329    0.00767   -0.00253
 27 O     0.00195    0.00113    0.22540

System changes: positions 

Initializing position-dependent things.

Density initialized from wave functions
                                           
                                           
                                           
                                           
                                           
                                           
                Rh     Rh     Rh           
           ORh                             
                 RRh    RRh    Rh          
       Rh    RRh   RRh    Rh               
                                           
        Rh     Rh   RRh    Rh    Rh        
                Rh    Rh     Rh            
                                           
           Rh    Rh     Rh                 
                                           
                                           
                                           
                                           

Positions:
   0 Rh     1.357534    0.783773    6.071198    ( 0.0000,  0.0000,  0.0000)
   1 Rh     4.073491    0.774074    6.080354    ( 0.0000,  0.0000,  0.0000)
   2 Rh     6.788626    0.773406    6.081494    ( 0.0000,  0.0000,  0.0000)
   3 Rh     2.707113    3.140710    6.080354    ( 0.0000,  0.0000,  0.0000)
   4 Rh     5.431334    3.135782    6.074653    ( 0.0000,  0.0000,  0.0000)
   5 Rh     8.155517    3.140547    6.080247    ( 0.0000,  0.0000,  0.0000)
   6 Rh     4.064102    5.492420    6.081494    ( 0.0000,  0.0000,  0.0000)
   7 Rh     6.797551    5.492611    6.080247    ( 0.0000,  0.0000,  0.0000)
   8 Rh     9.504969    5.487696    6.038828    ( 0.0000,  0.0000,  0.0000)
   9 Rh     0.003394    1.566382    8.228578    ( 0.0000,  0.0000,  0.0000)
  10 Rh     2.711503    1.565487    8.228508    ( 0.0000,  0.0000,  0.0000)
  11 Rh     5.430509    1.564715    8.228890    ( 0.0000,  0.0000,  0.0000)
  12 Rh     1.358102    3.915576    8.252367    ( 0.0000,  0.0000,  0.0000)
  13 Rh     4.070338    3.920601    8.228890    ( 0.0000,  0.0000,  0.0000)
  14 Rh     6.790874    3.920713    8.228488    ( 0.0000,  0.0000,  0.0000)
  15 Rh     2.719353    6.273039    8.254349    ( 0.0000,  0.0000,  0.0000)
  16 Rh     5.431159    6.274279    8.228578    ( 0.0000,  0.0000,  0.0000)
  17 Rh     8.142975    6.272893    8.252367    ( 0.0000,  0.0000,  0.0000)
  18 Rh    -0.022017   -0.012711   10.474315    ( 0.0000,  0.0000,  0.0000)
  19 Rh     2.736927   -0.014341   10.475211    ( 0.0000,  0.0000,  0.0000)
  20 Rh     5.429103    0.008201   10.391400    ( 0.0000,  0.0000,  0.0000)
  21 Rh     1.356044    2.377419   10.475211    ( 0.0000,  0.0000,  0.0000)
  22 Rh     4.097875    2.365909   10.386257    ( 0.0000,  0.0000,  0.0000)
  23 Rh     6.761460    2.365599   10.386589    ( 0.0000,  0.0000,  0.0000)
  24 Rh     2.721654    4.697641   10.391400    ( 0.0000,  0.0000,  0.0000)
  25 Rh     5.429399    4.672797   10.386589    ( 0.0000,  0.0000,  0.0000)
  26 Rh     8.137655    4.698277   10.390451    ( 0.0000,  0.0000,  0.0000)
  27 O      1.358975    0.784604   11.742958    ( 0.0000,  0.0000,  0.0000)

Unit cell:
           periodic     x           y           z      points  spacing
  1. axis:    yes    8.145870    0.000000    0.000000    40     0.1764
  2. axis:    yes    4.072935    7.054530    0.000000    40     0.1764
  3. axis:    no     0.000000    0.000000   16.434050    81     0.2029

  Lengths:   8.145870   8.145870  16.434050
  Angles:   90.000000  90.000000  60.000000

Effective grid spacing dv^(1/3) = 0.1939

     iter     time        total  log10-change:
                         energy  eigst   dens
iter:   1 13:04:30  -189.244574  -3.24
iter:   2 13:04:35  -189.444631  -3.45  -2.67
iter:   3 13:04:39  -189.203537  -3.88  -2.34
iter:   4 13:04:43  -189.199973  -5.20  -3.14
iter:   5 13:04:47  -189.198853c -5.34  -3.33
iter:   6 13:04:52  -189.198638c -5.79  -3.49
iter:   7 13:04:56  -189.198383c -5.77  -3.57
iter:   8 13:05:00  -189.198321c -5.68  -3.72
iter:   9 13:05:05  -189.198248c -6.40  -3.94
iter:  10 13:05:09  -189.198263c -6.83  -4.01c
iter:  11 13:05:13  -189.198234c -6.69  -4.08c
iter:  12 13:05:17  -189.198185c -6.78  -4.12c
iter:  13 13:05:22  -189.198195c -7.58c -4.37c

Converged after 13 iterations.

Dipole moment: (-0.791972, -0.457246, -0.150222) |e|*Ang

Energy contributions relative to reference atoms: (reference = -3515676.321306)

Kinetic:       -148.879757
Potential:      +73.118932
External:        +0.000000
XC:            -110.410854
Entropy (-ST):   -1.626742
Local:           -2.213145
--------------------------
Free energy:   -190.011566
Extrapolated:  -189.198195

Showing only first 2 kpts
 Kpt  Band  Eigenvalues  Occupancy
  0   203      1.57797    1.17358
  0   204      1.59028    1.11327
  0   205      1.62565    0.93699
  0   206      1.64097    0.86125

  1   203      1.52230    1.42491
  1   204      1.56782    1.22229
  1   205      1.60580    1.03616
  1   206      1.62076    0.96142


Fermi level: 1.61304

No gap

Forces in eV/Ang:
  0 Rh    0.00090    0.00052    0.00054
  1 Rh    0.01510    0.00528    0.00042
  2 Rh   -0.01400    0.00490    0.00027
  3 Rh    0.01212    0.01043    0.00042
  4 Rh    0.00077    0.00044    0.01647
  5 Rh   -0.01080    0.01002   -0.00080
  6 Rh   -0.00276   -0.01457    0.00027
  7 Rh    0.00328   -0.01436   -0.00080
  8 Rh    0.00113    0.00065   -0.05803
  9 Rh   -0.02031    0.01085   -0.02713
 10 Rh    0.01979    0.01143   -0.02742
 11 Rh    0.00007   -0.00094    0.01170
 12 Rh    0.00107   -0.02232   -0.00905
 13 Rh   -0.00078    0.00053    0.01170
 14 Rh    0.00080    0.00046    0.01164
 15 Rh    0.01850    0.01068   -0.01010
 16 Rh   -0.00076   -0.02301   -0.02713
 17 Rh   -0.01880    0.01209   -0.00905
 18 Rh    0.01911    0.01104   -0.01216
 19 Rh   -0.01940    0.01074   -0.01275
 20 Rh   -0.00117   -0.02056    0.01582
 21 Rh   -0.00040   -0.02217   -0.01275
 22 Rh    0.01360    0.00785    0.02833
 23 Rh   -0.01654    0.00811    0.02838
 24 Rh   -0.01839    0.00927    0.01582
 25 Rh   -0.00125   -0.01838    0.02838
 26 Rh    0.01810    0.01045    0.01664
 27 O     0.00101    0.00058    0.00787

System changes: positions 

Initializing position-dependent things.

Density initialized from wave functions
                                           
                                           
                                           
                                           
                                           
                                           
                Rh     Rh     Rh           
           ORh                             
                 RRh    RRh    Rh          
       Rh    RRh   RRh    Rh               
                                           
        Rh     Rh   RRh    Rh    Rh        
                Rh    Rh     Rh            
                                           
           Rh    Rh     Rh                 
                                           
                                           
                                           
                                           

Positions:
   0 Rh     1.357646    0.783837    6.071924    ( 0.0000,  0.0000,  0.0000)
   1 Rh     4.075027    0.775086    6.080174    ( 0.0000,  0.0000,  0.0000)
   2 Rh     6.787260    0.774298    6.081335    ( 0.0000,  0.0000,  0.0000)
   3 Rh     2.708758    3.141534    6.080174    ( 0.0000,  0.0000,  0.0000)
   4 Rh     5.431458    3.135854    6.076420    ( 0.0000,  0.0000,  0.0000)
   5 Rh     8.154111    3.141384    6.079956    ( 0.0000,  0.0000,  0.0000)
   6 Rh     4.064192    5.490791    6.081335    ( 0.0000,  0.0000,  0.0000)
   7 Rh     6.797574    5.490975    6.079956    ( 0.0000,  0.0000,  0.0000)
   8 Rh     9.505055    5.487746    6.031075    ( 0.0000,  0.0000,  0.0000)
   9 Rh     0.000751    1.567822    8.225228    ( 0.0000,  0.0000,  0.0000)
  10 Rh     2.714085    1.566978    8.225120    ( 0.0000,  0.0000,  0.0000)
  11 Rh     5.430509    1.565195    8.231821    ( 0.0000,  0.0000,  0.0000)
  12 Rh     1.358194    3.914506    8.250856    ( 0.0000,  0.0000,  0.0000)
  13 Rh     4.070753    3.920361    8.231821    ( 0.0000,  0.0000,  0.0000)
  14 Rh     6.790468    3.920479    8.231357    ( 0.0000,  0.0000,  0.0000)
  15 Rh     2.720161    6.273506    8.252690    ( 0.0000,  0.0000,  0.0000)
  16 Rh     5.431084    6.271270    8.225228    ( 0.0000,  0.0000,  0.0000)
  17 Rh     8.142094    6.273508    8.250856    ( 0.0000,  0.0000,  0.0000)
  18 Rh    -0.018131   -0.010468   10.470632    ( 0.0000,  0.0000,  0.0000)
  19 Rh     2.732952   -0.012194   10.471363    ( 0.0000,  0.0000,  0.0000)
  20 Rh     5.429033    0.006006   10.393434    ( 0.0000,  0.0000,  0.0000)
  21 Rh     1.355916    2.372903   10.471363    ( 0.0000,  0.0000,  0.0000)
  22 Rh     4.098245    2.366123   10.391072    ( 0.0000,  0.0000,  0.0000)
  23 Rh     6.760626    2.365903   10.391390    ( 0.0000,  0.0000,  0.0000)
  24 Rh     2.719718    4.698678   10.393434    ( 0.0000,  0.0000,  0.0000)
  25 Rh     5.429245    4.671923   10.391390    ( 0.0000,  0.0000,  0.0000)
  26 Rh     8.139555    4.699374   10.392597    ( 0.0000,  0.0000,  0.0000)
  27 O      1.359144    0.784702   11.745694    ( 0.0000,  0.0000,  0.0000)

Unit cell:
           periodic     x           y           z      points  spacing
  1. axis:    yes    8.145870    0.000000    0.000000    40     0.1764
  2. axis:    yes    4.072935    7.054530    0.000000    40     0.1764
  3. axis:    no     0.000000    0.000000   16.434050    81     0.2029

  Lengths:   8.145870   8.145870  16.434050
  Angles:   90.000000  90.000000  60.000000

Effective grid spacing dv^(1/3) = 0.1939

     iter     time        total  log10-change:
                         energy  eigst   dens
iter:   1 13:05:27  -189.212160  -3.58
iter:   2 13:05:31  -189.227146  -4.16  -3.02
iter:   3 13:05:36  -189.202021c -4.62  -2.81
iter:   4 13:05:40  -189.199889c -5.62  -3.26
iter:   5 13:05:44  -189.199703c -6.09  -3.59
iter:   6 13:05:48  -189.199527c -5.77  -3.67
iter:   7 13:05:53  -189.199481c -6.07  -3.92
iter:   8 13:05:57  -189.199461c -6.77  -4.06c
iter:   9 13:06:01  -189.199469c -6.99  -4.15c
iter:  10 13:06:05  -189.199470c -6.87  -4.19c
iter:  11 13:06:10  -189.199450c -7.56c -4.31c

Converged after 11 iterations.

Dipole moment: (-0.954033, -0.550811, -0.153405) |e|*Ang

Energy contributions relative to reference atoms: (reference = -3515676.321306)

Kinetic:       -149.661224
Potential:      +73.766776
External:        +0.000000
XC:            -110.284363
Entropy (-ST):   -1.627157
Local:           -2.207061
--------------------------
Free energy:   -190.013029
Extrapolated:  -189.199450

Showing only first 2 kpts
 Kpt  Band  Eigenvalues  Occupancy
  0   203      1.57842    1.16794
  0   204      1.58991    1.11163
  0   205      1.62657    0.92895
  0   206      1.64006    0.86222

  1   203      1.52238    1.42170
  1   204      1.56655    1.22501
  1   205      1.60342    1.04451
  1   206      1.61822    0.97055


Fermi level: 1.61233

No gap

Forces in eV/Ang:
  0 Rh    0.00038    0.00022    0.00320
  1 Rh    0.00505   -0.00365    0.00113
  2 Rh   -0.00392   -0.00260    0.00015
  3 Rh   -0.00064    0.00620    0.00113
  4 Rh    0.00035    0.00020    0.01597
  5 Rh    0.00140    0.00557    0.00129
  6 Rh   -0.00421   -0.00209    0.00015
  7 Rh    0.00552   -0.00157    0.00129
  8 Rh    0.00011    0.00006    0.00834
  9 Rh    0.01000   -0.00530    0.00941
 10 Rh   -0.01090   -0.00629    0.00954
 11 Rh    0.00055   -0.01174    0.02479
 12 Rh   -0.00173    0.01700    0.00393
 13 Rh   -0.00989    0.00635    0.02479
 14 Rh    0.01212    0.00700    0.02516
 15 Rh   -0.01514   -0.00874    0.00544
 16 Rh    0.00041    0.01131    0.00941
 17 Rh    0.01386   -0.00999    0.00393
 18 Rh   -0.00845   -0.00488   -0.00935
 19 Rh    0.00751   -0.00497   -0.00879
 20 Rh   -0.00039   -0.00831   -0.00360
 21 Rh   -0.00054    0.00899   -0.00879
 22 Rh   -0.00630   -0.00364   -0.00116
 23 Rh    0.00648   -0.00427   -0.00103
 24 Rh   -0.00739    0.00382   -0.00360
 25 Rh   -0.00045    0.00775   -0.00103
 26 Rh    0.00621    0.00359   -0.00394
 27 O    -0.00015   -0.00009   -0.00853

System changes: positions 

Initializing position-dependent things.

Density initialized from wave functions
                                           
                                           
                                           
                                           
                                           
                                           
                Rh     Rh     Rh           
           ORh                             
                 RRh    RRh    Rh          
       Rh    RRh   RRh    Rh               
                                           
        Rh     Rh   RRh    Rh    Rh        
                Rh    Rh     Rh            
                                           
           Rh    Rh     Rh                 
                                           
                                           
                                           
                                           

Positions:
   0 Rh     1.357708    0.783873    6.072393    ( 0.0000,  0.0000,  0.0000)
   1 Rh     4.075871    0.774934    6.080560    ( 0.0000,  0.0000,  0.0000)
   2 Rh     6.786548    0.774206    6.081638    ( 0.0000,  0.0000,  0.0000)
   3 Rh     2.709048    3.142341    6.080560    ( 0.0000,  0.0000,  0.0000)
   4 Rh     5.431516    3.135887    6.078486    ( 0.0000,  0.0000,  0.0000)
   5 Rh     8.153946    3.142132    6.080315    ( 0.0000,  0.0000,  0.0000)
   6 Rh     4.063756    5.490220    6.081638    ( 0.0000,  0.0000,  0.0000)
   7 Rh     6.798139    5.490458    6.080315    ( 0.0000,  0.0000,  0.0000)
   8 Rh     9.505096    5.487770    6.030219    ( 0.0000,  0.0000,  0.0000)
   9 Rh     0.000852    1.567781    8.225270    ( 0.0000,  0.0000,  0.0000)
  10 Rh     2.713891    1.566866    8.225157    ( 0.0000,  0.0000,  0.0000)
  11 Rh     5.430551    1.564265    8.234341    ( 0.0000,  0.0000,  0.0000)
  12 Rh     1.358091    3.915507    8.250805    ( 0.0000,  0.0000,  0.0000)
  13 Rh     4.069968    3.920862    8.234341    ( 0.0000,  0.0000,  0.0000)
  14 Rh     6.791430    3.921034    8.233906    ( 0.0000,  0.0000,  0.0000)
  15 Rh     2.719240    6.272974    8.252746    ( 0.0000,  0.0000,  0.0000)
  16 Rh     5.431099    6.271378    8.225270    ( 0.0000,  0.0000,  0.0000)
  17 Rh     8.142909    6.272918    8.250805    ( 0.0000,  0.0000,  0.0000)
  18 Rh    -0.018551   -0.010710   10.468923    ( 0.0000,  0.0000,  0.0000)
  19 Rh     2.733287   -0.012475   10.469673    ( 0.0000,  0.0000,  0.0000)
  20 Rh     5.428963    0.004808   10.393742    ( 0.0000,  0.0000,  0.0000)
  21 Rh     1.355840    2.373334   10.469673    ( 0.0000,  0.0000,  0.0000)
  22 Rh     4.098119    2.366050   10.391936    ( 0.0000,  0.0000,  0.0000)
  23 Rh     6.760662    2.365791   10.392270    ( 0.0000,  0.0000,  0.0000)
  24 Rh     2.718646    4.699216   10.393742    ( 0.0000,  0.0000,  0.0000)
  25 Rh     5.429166    4.672009   10.392270    ( 0.0000,  0.0000,  0.0000)
  26 Rh     8.140506    4.699923   10.392896    ( 0.0000,  0.0000,  0.0000)
  27 O      1.359170    0.784717   11.743463    ( 0.0000,  0.0000,  0.0000)

Unit cell:
           periodic     x           y           z      points  spacing
  1. axis:    yes    8.145870    0.000000    0.000000    40     0.1764
  2. axis:    yes    4.072935    7.054530    0.000000    40     0.1764
  3. axis:    no     0.000000    0.000000   16.434050    81     0.2029

  Lengths:   8.145870   8.145870  16.434050
  Angles:   90.000000  90.000000  60.000000

Effective grid spacing dv^(1/3) = 0.1939

     iter     time        total  log10-change:
                         energy  eigst   dens
iter:   1 13:06:15  -189.211722  -4.25
iter:   2 13:06:19  -189.268880  -4.06  -2.97
iter:   3 13:06:24  -189.201031c -4.47  -2.62
iter:   4 13:06:28  -189.200121c -5.95  -3.57
iter:   5 13:06:32  -189.200043c -6.44  -3.89
iter:   6 13:06:37  -189.199979c -6.27  -4.04c
iter:   7 13:06:41  -189.199974c -7.05  -4.26c
iter:   8 13:06:45  -189.199980c -7.39  -4.41c
iter:   9 13:06:49  -189.199982c -7.93c -4.56c

Converged after 9 iterations.

Dipole moment: (-0.865291, -0.499576, -0.152250) |e|*Ang

Energy contributions relative to reference atoms: (reference = -3515676.321306)

Kinetic:       -149.265592
Potential:      +73.430825
External:        +0.000000
XC:            -110.340069
Entropy (-ST):   -1.626712
Local:           -2.211789
--------------------------
Free energy:   -190.013338
Extrapolated:  -189.199982

Showing only first 2 kpts
 Kpt  Band  Eigenvalues  Occupancy
  0   203      1.57985    1.16623
  0   204      1.59067    1.11319
  0   205      1.62767    0.92879
  0   206      1.64107    0.86252

  1   203      1.52367    1.42082
  1   204      1.56708    1.22754
  1   205      1.60479    1.04302
  1   206      1.61905    0.97176


Fermi level: 1.61340

No gap

Forces in eV/Ang:
  0 Rh    0.00004    0.00002   -0.00023
  1 Rh   -0.00070    0.00768    0.00368
  2 Rh    0.00109    0.00700    0.00347
  3 Rh    0.00630   -0.00445    0.00368
  4 Rh    0.00025    0.00015    0.02132
  5 Rh   -0.00574   -0.00442    0.00300
  6 Rh    0.00660   -0.00256    0.00347
  7 Rh   -0.00669   -0.00276    0.00300
  8 Rh    0.00035    0.00020   -0.00407
  9 Rh   -0.00109   -0.00014   -0.00270
 10 Rh    0.00152    0.00088   -0.00221
 11 Rh   -0.00026    0.01123   -0.00302
 12 Rh    0.00110   -0.00808   -0.00449
 13 Rh    0.00960   -0.00584   -0.00302
 14 Rh   -0.01093   -0.00631   -0.00290
 15 Rh    0.00695    0.00401   -0.00559
 16 Rh   -0.00066   -0.00088   -0.00270
 17 Rh   -0.00644    0.00499   -0.00449
 18 Rh    0.00811    0.00468   -0.00076
 19 Rh   -0.00843    0.00535   -0.00008
 20 Rh   -0.00035    0.00295    0.00189
 21 Rh    0.00042   -0.00997   -0.00008
 22 Rh   -0.00373   -0.00216    0.00011
 23 Rh    0.00314   -0.00223    0.00057
 24 Rh    0.00238   -0.00178    0.00189
 25 Rh   -0.00037    0.00384    0.00057
 26 Rh   -0.00246   -0.00142    0.00302
 27 O     0.00053    0.00030    0.00406

System changes: positions 

Initializing position-dependent things.

Density initialized from wave functions
                                           
                                           
                                           
                                           
                                           
                                           
                Rh     Rh     Rh           
           ORh                             
                 RRh    RRh    Rh          
       Rh    RRh   RRh    Rh               
                                           
        Rh     Rh   RRh    Rh    Rh        
                Rh    Rh     Rh            
                                           
           Rh    Rh     Rh                 
                                           
                                           
                                           
                                           

Positions:
   0 Rh     1.357764    0.783906    6.072592    ( 0.0000,  0.0000,  0.0000)
   1 Rh     4.076525    0.775677    6.081001    ( 0.0000,  0.0000,  0.0000)
   2 Rh     6.786033    0.774922    6.081994    ( 0.0000,  0.0000,  0.0000)
   3 Rh     2.710018    3.142536    6.081001    ( 0.0000,  0.0000,  0.0000)
   4 Rh     5.431587    3.135928    6.082038    ( 0.0000,  0.0000,  0.0000)
   5 Rh     8.153126    3.142287    6.080658    ( 0.0000,  0.0000,  0.0000)
   6 Rh     4.064119    5.489416    6.081994    ( 0.0000,  0.0000,  0.0000)
   7 Rh     6.797863    5.489671    6.080658    ( 0.0000,  0.0000,  0.0000)
   8 Rh     9.505167    5.487811    6.028502    ( 0.0000,  0.0000,  0.0000)
   9 Rh     0.000592    1.567858    8.224682    ( 0.0000,  0.0000,  0.0000)
  10 Rh     2.714127    1.567002    8.224607    ( 0.0000,  0.0000,  0.0000)
  11 Rh     5.430556    1.564757    8.235953    ( 0.0000,  0.0000,  0.0000)
  12 Rh     1.358133    3.915246    8.250160    ( 0.0000,  0.0000,  0.0000)
  13 Rh     4.070397    3.920621    8.235953    ( 0.0000,  0.0000,  0.0000)
  14 Rh     6.790996    3.920784    8.235549    ( 0.0000,  0.0000,  0.0000)
  15 Rh     2.719410    6.273072    8.252050    ( 0.0000,  0.0000,  0.0000)
  16 Rh     5.431036    6.271115    8.224682    ( 0.0000,  0.0000,  0.0000)
  17 Rh     8.142704    6.273085    8.250160    ( 0.0000,  0.0000,  0.0000)
  18 Rh    -0.017446   -0.010072   10.467642    ( 0.0000,  0.0000,  0.0000)
  19 Rh     2.732085   -0.011796   10.468465    ( 0.0000,  0.0000,  0.0000)
  20 Rh     5.428876    0.004030   10.394270    ( 0.0000,  0.0000,  0.0000)
  21 Rh     1.355827    2.371953   10.468465    ( 0.0000,  0.0000,  0.0000)
  22 Rh     4.097685    2.365799   10.392896    ( 0.0000,  0.0000,  0.0000)
  23 Rh     6.760949    2.365510   10.393282    ( 0.0000,  0.0000,  0.0000)
  24 Rh     2.717928    4.699530   10.394270    ( 0.0000,  0.0000,  0.0000)
  25 Rh     5.429066    4.672398   10.393282    ( 0.0000,  0.0000,  0.0000)
  26 Rh     8.141137    4.700287   10.393542    ( 0.0000,  0.0000,  0.0000)
  27 O      1.359247    0.784762   11.743965    ( 0.0000,  0.0000,  0.0000)

Unit cell:
           periodic     x           y           z      points  spacing
  1. axis:    yes    8.145870    0.000000    0.000000    40     0.1764
  2. axis:    yes    4.072935    7.054530    0.000000    40     0.1764
  3. axis:    no     0.000000    0.000000   16.434050    81     0.2029

  Lengths:   8.145870   8.145870  16.434050
  Angles:   90.000000  90.000000  60.000000

Effective grid spacing dv^(1/3) = 0.1939

     iter     time        total  log10-change:
                         energy  eigst   dens
iter:   1 13:06:55  -189.214041  -4.31
iter:   2 13:06:59  -189.286563  -4.00  -2.96
iter:   3 13:07:03  -189.200270c -4.43  -2.57
iter:   4 13:07:08  -189.200426c -5.90  -3.89
iter:   5 13:07:12  -189.200407c -6.76  -4.02c
iter:   6 13:07:16  -189.200338c -6.39  -4.10c
iter:   7 13:07:20  -189.200343c -7.02  -4.41c
iter:   8 13:07:25  -189.200343c -7.78c -4.47c

Converged after 8 iterations.

Dipole moment: (-0.871659, -0.503252, -0.151979) |e|*Ang

Energy contributions relative to reference atoms: (reference = -3515676.321306)

Kinetic:       -149.232288
Potential:      +73.405386
External:        +0.000000
XC:            -110.350235
Entropy (-ST):   -1.626215
Local:           -2.210098
--------------------------
Free energy:   -190.013450
Extrapolated:  -189.200343

Showing only first 2 kpts
 Kpt  Band  Eigenvalues  Occupancy
  0   203      1.57997    1.16481
  0   204      1.59026    1.11437
  0   205      1.62798    0.92644
  0   206      1.64083    0.86289

  1   203      1.52348    1.42088
  1   204      1.56684    1.22792
  1   205      1.60418    1.04524
  1   206      1.61871    0.97267


Fermi level: 1.61324

No gap

Forces in eV/Ang:
  0 Rh    0.00036    0.00021   -0.00675
  1 Rh   -0.00248   -0.00848   -0.00452
  2 Rh    0.00218   -0.00793   -0.00438
  3 Rh   -0.00858    0.00209   -0.00452
  4 Rh    0.00029    0.00017   -0.01481
  5 Rh    0.00824    0.00273   -0.00383
  6 Rh   -0.00578    0.00585   -0.00438
  7 Rh    0.00648    0.00577   -0.00383
  8 Rh   -0.00081   -0.00047    0.00375
  9 Rh    0.00348   -0.00066    0.00838
 10 Rh   -0.00366   -0.00211    0.00792
 11 Rh    0.00050   -0.01519    0.00379
 12 Rh   -0.00161    0.01202    0.00597
 13 Rh   -0.01291    0.00803    0.00379
 14 Rh    0.01418    0.00819    0.00389
 15 Rh   -0.01033   -0.00596    0.00646
 16 Rh    0.00117    0.00335    0.00838
 17 Rh    0.00960   -0.00740    0.00597
 18 Rh   -0.01089   -0.00629   -0.00221
 19 Rh    0.01120   -0.00740   -0.00275
 20 Rh    0.00036    0.00002   -0.00697
 21 Rh   -0.00081    0.01340   -0.00275
 22 Rh   -0.00097   -0.00056   -0.00441
 23 Rh    0.00221   -0.00047   -0.00430
 24 Rh    0.00020    0.00031   -0.00697
 25 Rh    0.00070    0.00215   -0.00430
 26 Rh   -0.00089   -0.00051   -0.00748
 27 O     0.00061    0.00035    0.00396

System changes: positions 

Initializing position-dependent things.

Density initialized from wave functions
                                           
                                           
                                           
                                           
                                           
                                           
                Rh     Rh     Rh           
           ORh                             
                 RRh    RRh    Rh          
       Rh    RRh   RRh    Rh               
                                           
        Rh     Rh   RRh    Rh    Rh        
                Rh    Rh     Rh            
                                           
           Rh    Rh     Rh                 
                                           
                                           
                                           
                                           

Positions:
   0 Rh     1.357756    0.783901    6.072039    ( 0.0000,  0.0000,  0.0000)
   1 Rh     4.076056    0.775292    6.080766    ( 0.0000,  0.0000,  0.0000)
   2 Rh     6.786435    0.774547    6.081787    ( 0.0000,  0.0000,  0.0000)
   3 Rh     2.709450    3.142322    6.080766    ( 0.0000,  0.0000,  0.0000)
   4 Rh     5.431575    3.135921    6.080787    ( 0.0000,  0.0000,  0.0000)
   5 Rh     8.153625    3.142120    6.080461    ( 0.0000,  0.0000,  0.0000)
   6 Rh     4.063995    5.489952    6.081787    ( 0.0000,  0.0000,  0.0000)
   7 Rh     6.797968    5.490187    6.080461    ( 0.0000,  0.0000,  0.0000)
   8 Rh     9.505116    5.487781    6.029457    ( 0.0000,  0.0000,  0.0000)
   9 Rh     0.000849    1.567767    8.225255    ( 0.0000,  0.0000,  0.0000)
  10 Rh     2.713900    1.566871    8.225164    ( 0.0000,  0.0000,  0.0000)
  11 Rh     5.430563    1.564365    8.235000    ( 0.0000,  0.0000,  0.0000)
  12 Rh     1.358099    3.915402    8.250515    ( 0.0000,  0.0000,  0.0000)
  13 Rh     4.070061    3.920824    8.235000    ( 0.0000,  0.0000,  0.0000)
  14 Rh     6.791320    3.920971    8.234601    ( 0.0000,  0.0000,  0.0000)
  15 Rh     2.719305    6.273012    8.252397    ( 0.0000,  0.0000,  0.0000)
  16 Rh     5.431085    6.271382    8.225255    ( 0.0000,  0.0000,  0.0000)
  17 Rh     8.142822    6.272978    8.250515    ( 0.0000,  0.0000,  0.0000)
  18 Rh    -0.018068   -0.010432   10.468447    ( 0.0000,  0.0000,  0.0000)
  19 Rh     2.732756   -0.012184   10.469259    ( 0.0000,  0.0000,  0.0000)
  20 Rh     5.428911    0.004568   10.393750    ( 0.0000,  0.0000,  0.0000)
  21 Rh     1.355826    2.372728   10.469259    ( 0.0000,  0.0000,  0.0000)
  22 Rh     4.097729    2.365825   10.392033    ( 0.0000,  0.0000,  0.0000)
  23 Rh     6.761021    2.365543   10.392426    ( 0.0000,  0.0000,  0.0000)
  24 Rh     2.718412    4.699291   10.393750    ( 0.0000,  0.0000,  0.0000)
  25 Rh     5.429131    4.672445   10.392426    ( 0.0000,  0.0000,  0.0000)
  26 Rh     8.140658    4.700011   10.393002    ( 0.0000,  0.0000,  0.0000)
  27 O      1.359262    0.784770   11.744126    ( 0.0000,  0.0000,  0.0000)

Unit cell:
           periodic     x           y           z      points  spacing
  1. axis:    yes    8.145870    0.000000    0.000000    40     0.1764
  2. axis:    yes    4.072935    7.054530    0.000000    40     0.1764
  3. axis:    no     0.000000    0.000000   16.434050    81     0.2029

  Lengths:   8.145870   8.145870  16.434050
  Angles:   90.000000  90.000000  60.000000

Effective grid spacing dv^(1/3) = 0.1939

     iter     time        total  log10-change:
                         energy  eigst   dens
iter:   1 13:07:30  -189.204050  -4.78
iter:   2 13:07:34  -189.227856  -4.50  -3.20
iter:   3 13:07:39  -189.200416c -4.92  -2.82
iter:   4 13:07:43  -189.200273c -6.40  -4.05c
iter:   5 13:07:47  -189.200269c -7.19  -4.22c
iter:   6 13:07:52  -189.200249c -7.03  -4.33c
iter:   7 13:07:56  -189.200250c -7.41c -4.57c

Converged after 7 iterations.

Dipole moment: (-0.869925, -0.502251, -0.152096) |e|*Ang

Energy contributions relative to reference atoms: (reference = -3515676.321306)

Kinetic:       -149.241431
Potential:      +73.410347
External:        +0.000000
XC:            -110.346495
Entropy (-ST):   -1.626344
Local:           -2.209499
--------------------------
Free energy:   -190.013423
Extrapolated:  -189.200250

Showing only first 2 kpts
 Kpt  Band  Eigenvalues  Occupancy
  0   203      1.57957    1.16588
  0   204      1.59021    1.11372
  0   205      1.62749    0.92795
  0   206      1.64069    0.86269

  1   203      1.52317    1.42141
  1   204      1.56679    1.22731
  1   205      1.60423    1.04413
  1   206      1.61873    0.97163


Fermi level: 1.61306

No gap

Forces in eV/Ang:
  0 Rh   -0.00013   -0.00007    0.01186
  1 Rh    0.00748    0.00489    0.00600
  2 Rh   -0.00623    0.00474    0.00555
  3 Rh    0.00798    0.00403    0.00600
  4 Rh    0.00021    0.00012    0.00731
  5 Rh   -0.00692    0.00322    0.00574
  6 Rh    0.00099   -0.00777    0.00555
  7 Rh   -0.00067   -0.00760    0.00574
  8 Rh    0.00099    0.00057   -0.00304
  9 Rh    0.00052   -0.00123   -0.00574
 10 Rh   -0.00069   -0.00040   -0.00518
 11 Rh    0.00004    0.00510    0.01153
 12 Rh    0.00054   -0.00177   -0.00335
 13 Rh    0.00443   -0.00251    0.01153
 14 Rh   -0.00454   -0.00262    0.01158
 15 Rh    0.00154    0.00089   -0.00362
 16 Rh   -0.00081    0.00107   -0.00574
 17 Rh   -0.00126    0.00135   -0.00335
 18 Rh    0.00600    0.00346   -0.00053
 19 Rh   -0.00650    0.00410   -0.00013
 20 Rh   -0.00034   -0.00607    0.00883
 21 Rh    0.00030   -0.00768   -0.00013
 22 Rh    0.00079    0.00046    0.00669
 23 Rh   -0.00233   -0.00009    0.00662
 24 Rh   -0.00543    0.00274    0.00883
 25 Rh   -0.00124   -0.00197    0.00662
 26 Rh    0.00546    0.00315    0.00887
 27 O    -0.00114   -0.00066    0.00287

System changes: positions 

Initializing position-dependent things.

Density initialized from wave functions
                                           
                                           
                                           
                                           
                                           
                                           
                Rh     Rh     Rh           
           ORh                             
                 RRh    RRh    Rh          
       Rh    RRh   RRh    Rh               
                                           
        Rh     Rh   RRh    Rh    Rh        
                Rh    Rh     Rh            
                                           
           Rh    Rh     Rh                 
                                           
                                           
                                           
                                           

Positions:
   0 Rh     1.357780    0.783915    6.072446    ( 0.0000,  0.0000,  0.0000)
   1 Rh     4.076513    0.775475    6.080968    ( 0.0000,  0.0000,  0.0000)
   2 Rh     6.786056    0.774727    6.081960    ( 0.0000,  0.0000,  0.0000)
   3 Rh     2.709837    3.142626    6.080968    ( 0.0000,  0.0000,  0.0000)
   4 Rh     5.431610    3.135942    6.081688    ( 0.0000,  0.0000,  0.0000)
   5 Rh     8.153318    3.142399    6.080642    ( 0.0000,  0.0000,  0.0000)
   6 Rh     4.063961    5.489534    6.081960    ( 0.0000,  0.0000,  0.0000)
   7 Rh     6.798056    5.489780    6.080642    ( 0.0000,  0.0000,  0.0000)
   8 Rh     9.505151    5.487801    6.028552    ( 0.0000,  0.0000,  0.0000)
   9 Rh     0.000701    1.567831    8.224917    ( 0.0000,  0.0000,  0.0000)
  10 Rh     2.714020    1.566940    8.224836    ( 0.0000,  0.0000,  0.0000)
  11 Rh     5.430576    1.564312    8.236170    ( 0.0000,  0.0000,  0.0000)
  12 Rh     1.358090    3.915608    8.250292    ( 0.0000,  0.0000,  0.0000)
  13 Rh     4.070022    3.920861    8.236170    ( 0.0000,  0.0000,  0.0000)
  14 Rh     6.791398    3.921015    8.235774    ( 0.0000,  0.0000,  0.0000)
  15 Rh     2.719104    6.272896    8.252174    ( 0.0000,  0.0000,  0.0000)
  16 Rh     5.431067    6.271222    8.224917    ( 0.0000,  0.0000,  0.0000)
  17 Rh     8.142996    6.272867    8.250292    ( 0.0000,  0.0000,  0.0000)
  18 Rh    -0.017654   -0.010192   10.467640    ( 0.0000,  0.0000,  0.0000)
  19 Rh     2.732298   -0.011950   10.468453    ( 0.0000,  0.0000,  0.0000)
  20 Rh     5.428883    0.004010   10.394148    ( 0.0000,  0.0000,  0.0000)
  21 Rh     1.355800    2.372215   10.468453    ( 0.0000,  0.0000,  0.0000)
  22 Rh     4.097636    2.365771   10.392780    ( 0.0000,  0.0000,  0.0000)
  23 Rh     6.761021    2.365476   10.393180    ( 0.0000,  0.0000,  0.0000)
  24 Rh     2.717914    4.699546   10.394148    ( 0.0000,  0.0000,  0.0000)
  25 Rh     5.429073    4.672478   10.393180    ( 0.0000,  0.0000,  0.0000)
  26 Rh     8.141117    4.700276   10.393417    ( 0.0000,  0.0000,  0.0000)
  27 O      1.359266    0.784773   11.744106    ( 0.0000,  0.0000,  0.0000)

Unit cell:
           periodic     x           y           z      points  spacing
  1. axis:    yes    8.145870    0.000000    0.000000    40     0.1764
  2. axis:    yes    4.072935    7.054530    0.000000    40     0.1764
  3. axis:    no     0.000000    0.000000   16.434050    81     0.2029

  Lengths:   8.145870   8.145870  16.434050
  Angles:   90.000000  90.000000  60.000000

Effective grid spacing dv^(1/3) = 0.1939

     iter     time        total  log10-change:
                         energy  eigst   dens
iter:   1 13:08:01  -189.200345  -5.06
iter:   2 13:08:06  -189.200764  -5.95  -3.94
iter:   3 13:08:10  -189.200495c -6.42  -3.78
iter:   4 13:08:14  -189.200391c -7.17  -4.13c
iter:   5 13:08:18  -189.200389c -7.33  -4.34c
iter:   6 13:08:23  -189.200372c -7.56c -4.44c

Converged after 6 iterations.

Dipole moment: (-0.866140, -0.500066, -0.152994) |e|*Ang

Energy contributions relative to reference atoms: (reference = -3515676.321306)

Kinetic:       -149.179055
Potential:      +73.355128
External:        +0.000000
XC:            -110.353744
Entropy (-ST):   -1.626204
Local:           -2.209599
--------------------------
Free energy:   -190.013473
Extrapolated:  -189.200372

Showing only first 2 kpts
 Kpt  Band  Eigenvalues  Occupancy
  0   203      1.58011    1.16477
  0   204      1.59043    1.11420
  0   205      1.62803    0.92684
  0   206      1.64101    0.86266

  1   203      1.52365    1.42074
  1   204      1.56683    1.22861
  1   205      1.60451    1.04426
  1   206      1.61877    0.97303


Fermi level: 1.61337

No gap

Forces in eV/Ang:
  0 Rh   -0.00009   -0.00005    0.00237
  1 Rh    0.00031   -0.00169    0.00424
  2 Rh   -0.00033   -0.00168    0.00412
  3 Rh   -0.00131    0.00111    0.00424
  4 Rh    0.00007    0.00004    0.00498
  5 Rh    0.00118    0.00107    0.00434
  6 Rh   -0.00162    0.00055    0.00412
  7 Rh    0.00152    0.00048    0.00434
  8 Rh   -0.00014   -0.00008    0.00613
  9 Rh    0.00357   -0.00189    0.00566
 10 Rh   -0.00337   -0.00195    0.00578
 11 Rh    0.00016   -0.00096   -0.00559
 12 Rh   -0.00010    0.00182    0.00300
 13 Rh   -0.00075    0.00062   -0.00559
 14 Rh    0.00068    0.00039   -0.00548
 15 Rh   -0.00135   -0.00078    0.00287
 16 Rh    0.00015    0.00403    0.00566
 17 Rh    0.00152   -0.00100    0.00300
 18 Rh   -0.00274   -0.00158   -0.00050
 19 Rh    0.00291   -0.00147   -0.00021
 20 Rh    0.00008   -0.00031   -0.00302
 21 Rh    0.00018    0.00326   -0.00021
 22 Rh   -0.00065   -0.00038   -0.00190
 23 Rh    0.00107   -0.00053   -0.00181
 24 Rh   -0.00023    0.00022   -0.00302
 25 Rh    0.00008    0.00119   -0.00181
 26 Rh    0.00036    0.00021   -0.00286
 27 O    -0.00002   -0.00001    0.00143

Timing:                                      incl.     excl.
-------------------------------------------------------------------
Density initialized from wave functions:     2.295     2.100   0.3% |
 Symmetrize density:                         0.195     0.195   0.0% |
Forces:                                      7.084     7.084   1.0% |
Hamiltonian:                                 1.666     0.033   0.0% |
 Atomic:                                     0.003     0.002   0.0% |
  XC Correction:                             0.000     0.000   0.0% |
 Calculate atomic Hamiltonians:              0.434     0.434   0.1% |
 Communicate:                                0.740     0.740   0.1% |
 Initialize Hamiltonian:                     0.000     0.000   0.0% |
 Poisson:                                    0.005     0.005   0.0% |
 XC 3D grid:                                 0.452     0.452   0.1% |
LCAO initialization:                         9.553     0.187   0.0% |
 LCAO eigensolver:                           0.899     0.001   0.0% |
  Calculate projections:                     0.000     0.000   0.0% |
  DenseAtomicCorrection:                     0.000     0.000   0.0% |
  Distribute overlap matrix:                 0.608     0.608   0.1% |
  Orbital Layouts:                           0.225     0.225   0.0% |
  Potential matrix:                          0.027     0.027   0.0% |
  Sum over cells:                            0.037     0.037   0.0% |
 LCAO to grid:                               8.140     8.140   1.1% |
 Set positions (LCAO WFS):                   0.327     0.260   0.0% |
  Basic WFS set positions:                   0.002     0.002   0.0% |
  Basis functions set positions:             0.000     0.000   0.0% |
  P tci:                                     0.001     0.001   0.0% |
  ST tci:                                    0.032     0.032   0.0% |
  mktci:                                     0.032     0.032   0.0% |
PWDescriptor:                                0.382     0.382   0.1% |
Redistribute:                                0.009     0.009   0.0% |
SCF-cycle:                                 700.903     1.238   0.2% |
 Davidson:                                 639.135    93.028  12.8% |----|
  Apply H:                                  44.592    43.240   5.9% |-|
   HMM T:                                    1.353     1.353   0.2% |
  Subspace diag:                            81.996     0.069   0.0% |
   calc_h_matrix:                           53.363     9.944   1.4% ||
    Apply H:                                43.419    42.106   5.8% |-|
     HMM T:                                  1.313     1.313   0.2% |
   diagonalize:                             13.824    13.824   1.9% ||
   rotate_psi:                              14.740    14.740   2.0% ||
  calc. matrices:                          155.380    68.453   9.4% |---|
   Apply H:                                 86.927    84.239  11.6% |----|
    HMM T:                                   2.688     2.688   0.4% |
  diagonalize:                             232.274   232.274  31.9% |------------|
  rotate_psi:                               31.864    31.864   4.4% |-|
 Density:                                   34.770     0.003   0.0% |
  Atomic density matrices:                   0.527     0.527   0.1% |
  Mix:                                       9.345     9.345   1.3% ||
  Multipole moments:                         0.032     0.032   0.0% |
  Pseudo density:                           24.862    22.076   3.0% ||
   Symmetrize density:                       2.786     2.786   0.4% |
 Hamiltonian:                               23.224     0.452   0.1% |
  Atomic:                                    0.036     0.036   0.0% |
   XC Correction:                            0.001     0.001   0.0% |
  Calculate atomic Hamiltonians:             5.990     5.990   0.8% |
  Communicate:                              10.371    10.371   1.4% ||
  Poisson:                                   0.079     0.079   0.0% |
  XC 3D grid:                                6.296     6.296   0.9% |
 Orthonormalize:                             2.537     0.007   0.0% |
  calc_s_matrix:                             0.308     0.308   0.0% |
  inverse-cholesky:                          0.412     0.412   0.1% |
  projections:                               1.288     1.288   0.2% |
  rotate_psi_s:                              0.522     0.522   0.1% |
Set symmetry:                                0.002     0.002   0.0% |
Other:                                       6.266     6.266   0.9% |
-------------------------------------------------------------------
Total:                                               728.160 100.0%

Memory usage: 406.98 MiB
Date: Fri Mar 10 13:08:24 2023
