
  ___ ___ ___ _ _ _  
 |   |   |_  | | | | 
 | | | | | . | | | | 
 |__ |  _|___|_____|  22.8.0
 |___|_|             

User:   gotols@vera57-1
Date:   Thu Mar  9 16:49:00 2023
Arch:   x86_64
Pid:    2530098
CWD:    /cephyr/users/gotols/Vera/TIF320-Computational-materials-and-molecular-physics-Assignments
Python: 3.10.4
gpaw:   /apps/Arch/software/GPAW/22.8.0-foss-2022a/lib/python3.10/site-packages/gpaw
_gpaw:  /apps/Arch/software/GPAW/22.8.0-foss-2022a/lib/python3.10/site-packages/
        _gpaw.cpython-310-x86_64-linux-gnu.so
ase:    /apps/Arch/software/ASE/3.22.1-foss-2022a/lib/python3.10/site-packages/ase (version 3.22.1)
numpy:  /apps/Arch/software/SciPy-bundle/2022.05-foss-2022a/lib/python3.10/site-packages/numpy (version 1.22.3)
scipy:  /apps/Arch/software/SciPy-bundle/2022.05-foss-2022a/lib/python3.10/site-packages/scipy (version 1.8.1)
libxc:  5.2.3
units:  Angstrom and eV
cores: 16
OpenMP: False
OMP_NUM_THREADS: 1

Input parameters:
  kpts: [4 4 1]
  mode: {ecut: 450.00000000000006,
         name: pw}
  xc: PBE

System changes: positions, numbers, cell, pbc, initial_charges, initial_magmoms 

Initialize ...

species:
  Au:
    name: Gold
    id: b12133f335f6ca0d89c4b1ccaa844e9a
    Z: 79.0
    valence: 11
    core: 68
    charge: 0.0
    file: /apps/Common/software/GPAW-setups/0.9.20000/Au.PBE.gz
    compensation charges: {type: gauss,
                           rc: 0.42,
                           lmax: 2}
    cutoffs: {filter: 2.33,
              core: 2.81}
    valence states:
      #              energy  rcut
      - 6s(1.00)    -5.728   1.323
      - 6p(0.00)    -0.775   1.323
      - 5d(10.00)    -6.891   1.323
      -  s          21.484   1.323
      -  p          26.436   1.323
      -  d          20.321   1.323
  
    # Using partial waves for Au as LCAO basis

  O:
    name: Oxygen
    id: 32ecd46bf208036f09c70b0ec9a88b78
    Z: 8.0
    valence: 6
    core: 2
    charge: 0.0
    file: /apps/Common/software/GPAW-setups/0.9.20000/O.PBE.gz
    compensation charges: {type: gauss,
                           rc: 0.21,
                           lmax: 2}
    cutoffs: {filter: 1.17,
              core: 0.83}
    valence states:
      #              energy  rcut
      - 2s(2.00)   -23.961   0.688
      - 2p(4.00)    -9.029   0.598
      -  s           3.251   0.688
      -  p          18.182   0.598
      -  d           0.000   0.619
  
    # Using partial waves for O as LCAO basis

Reference energy: -13950194.172252  # eV

Spin-paired calculation

Convergence criteria:
 Maximum [total energy] change in last 3 cyles: 0.0005 eV / electron
 Maximum integral of absolute [dens]ity change: 0.0001 electrons / valence electron
 Maximum integral of absolute [eigenst]ate change: 4e-08 eV^2 / valence electron
 Maximum number of scf [iter]ations: 333
 (Square brackets indicate name in SCF output, whereas a 'c' in
 the SCF output indicates the quantity has converged.)

Symmetries present (total): 2

  ( 1  0  0)  ( 0  1  0)
  ( 0  1  0)  ( 1  0  0)
  ( 0  0  1)  ( 0  0  1)

16 k-points: 4 x 4 x 1 Monkhorst-Pack grid
6 k-points in the irreducible part of the Brillouin zone
       k-points in crystal coordinates                weights
   0:     0.12500000   -0.12500000    0.00000000          2/16
   1:     0.12500000    0.12500000    0.00000000          2/16
   2:     0.37500000   -0.37500000    0.00000000          2/16
   3:     0.37500000   -0.12500000    0.00000000          4/16
   4:     0.37500000    0.12500000    0.00000000          4/16
   5:     0.37500000    0.37500000    0.00000000          2/16

Wave functions: Plane wave expansion
  Cutoff energy: 450.000 eV
  Number of coefficients (min, max): 24769, 24813
  Pulay-stress correction: 0.000000 eV/Ang^3 (de/decut=0.000000)
  Using FFTW library
  ScaLapack parameters: grid=1x1, blocksize=None
  Wavefunction extrapolation:
    Improved wavefunction reuse through dual PAW basis 

Occupation numbers: Fermi-Dirac:
  width: 0.1000  # eV
 

Eigensolver
   Davidson(niter=2) 

Densities:
  Coarse grid: 45*45*84 grid
  Fine grid: 90*90*168 grid
  Total Charge: 0.000000 

Density mixing:
  Method: separate
  Backend: pulay
  Linear mixing parameter: 0.05
  old densities: 5
  Damping of long wavelength oscillations: 50 

Hamiltonian:
  XC and Coulomb potentials evaluated on a 90*90*168 grid
  Using the PBE Exchange-Correlation functional
  External potential:
    NoExternalPotential
 

XC parameters: PBE with 2 nearest neighbor stencil

Memory estimate:
  Process memory now: 1101.42 MiB
  Calculator: 310.60 MiB
    Density: 10.04 MiB
      Arrays: 4.23 MiB
      Localized functions: 4.11 MiB
      Mixer: 1.70 MiB
    Hamiltonian: 2.87 MiB
      Arrays: 2.77 MiB
      XC: 0.00 MiB
      Poisson: 0.00 MiB
      vbar: 0.10 MiB
    Wavefunctions: 297.70 MiB
      Arrays psit_nG: 211.27 MiB
      Eigensolver: 77.60 MiB
      Projections: 0.53 MiB
      Projectors: 1.42 MiB
      PW-descriptor: 6.88 MiB

Total number of cores used: 16
Parallelization over k-points: 2
Domain decomposition: 2 x 2 x 2

Number of atoms: 28
Number of atomic orbitals: 247
Number of bands in calculation: 186
Number of valence electrons: 303
Bands to converge: occupied

... initialized

Initializing position-dependent things.

Density initialized from atomic densities
Creating initial wave functions:
  186 bands from LCAO basis set

                                              
                                              
                                              
                                              
                                              
                                              
                                              
                  Au     Au     Au            
           O                                  
            Au     AAu    AAu    Au           
                                              
       Au     Au     AAu    Au                
        Au     Au     AAu    Au     Au        
                                              
                 Au     Au     Au             
                                              
           Au      Au     Au                  
                                              
                                              
                                              
                                              

Positions:
   0 Au     1.476793    0.852627    6.000000    ( 0.0000,  0.0000,  0.0000)
   1 Au     4.430378    0.852627    6.000000    ( 0.0000,  0.0000,  0.0000)
   2 Au     7.383963    0.852627    6.000000    ( 0.0000,  0.0000,  0.0000)
   3 Au     2.953585    3.410506    6.000000    ( 0.0000,  0.0000,  0.0000)
   4 Au     5.907170    3.410506    6.000000    ( 0.0000,  0.0000,  0.0000)
   5 Au     8.860755    3.410506    6.000000    ( 0.0000,  0.0000,  0.0000)
   6 Au     4.430378    5.968386    6.000000    ( 0.0000,  0.0000,  0.0000)
   7 Au     7.383963    5.968386    6.000000    ( 0.0000,  0.0000,  0.0000)
   8 Au    10.337548    5.968386    6.000000    ( 0.0000,  0.0000,  0.0000)
   9 Au    -0.000000    1.705253    8.411592    ( 0.0000,  0.0000,  0.0000)
  10 Au     2.953585    1.705253    8.411592    ( 0.0000,  0.0000,  0.0000)
  11 Au     5.907170    1.705253    8.411592    ( 0.0000,  0.0000,  0.0000)
  12 Au     1.476793    4.263133    8.411592    ( 0.0000,  0.0000,  0.0000)
  13 Au     4.430378    4.263133    8.411592    ( 0.0000,  0.0000,  0.0000)
  14 Au     7.383963    4.263133    8.411592    ( 0.0000,  0.0000,  0.0000)
  15 Au     2.953585    6.821012    8.411592    ( 0.0000,  0.0000,  0.0000)
  16 Au     5.907170    6.821012    8.411592    ( 0.0000,  0.0000,  0.0000)
  17 Au     8.860755    6.821012    8.411592    ( 0.0000,  0.0000,  0.0000)
  18 Au     0.000000    0.000000   10.823184    ( 0.0000,  0.0000,  0.0000)
  19 Au     2.953585    0.000000   10.823184    ( 0.0000,  0.0000,  0.0000)
  20 Au     5.907170    0.000000   10.823184    ( 0.0000,  0.0000,  0.0000)
  21 Au     1.476793    2.557880   10.823184    ( 0.0000,  0.0000,  0.0000)
  22 Au     4.430378    2.557880   10.823184    ( 0.0000,  0.0000,  0.0000)
  23 Au     7.383963    2.557880   10.823184    ( 0.0000,  0.0000,  0.0000)
  24 Au     2.953585    5.115759   10.823184    ( 0.0000,  0.0000,  0.0000)
  25 Au     5.907170    5.115759   10.823184    ( 0.0000,  0.0000,  0.0000)
  26 Au     8.860755    5.115759   10.823184    ( 0.0000,  0.0000,  0.0000)
  27 O      1.476793    0.852627   12.823184    ( 0.0000,  0.0000,  0.0000)

Unit cell:
           periodic     x           y           z      points  spacing
  1. axis:    yes    8.860755    0.000000    0.000000    45     0.1705
  2. axis:    yes    4.430378    7.673639    0.000000    45     0.1705
  3. axis:    no     0.000000    0.000000   16.823184    84     0.2003

  Lengths:   8.860755   8.860755  16.823184
  Angles:   90.000000  90.000000  60.000000

Effective grid spacing dv^(1/3) = 0.1888

     iter     time        total  log10-change:
                         energy  eigst   dens
iter:   1 16:49:14   -93.197284
iter:   2 16:49:19   -89.234516  -1.75  -1.32
iter:   3 16:49:24   -86.602584  -1.69  -1.35
iter:   4 16:49:30   -86.701366  -1.81  -1.42
iter:   5 16:49:35   -82.614638  -1.70  -1.42
iter:   6 16:49:40   -82.024241  -1.94  -1.72
iter:   7 16:49:46   -82.013739  -3.22  -1.99
iter:   8 16:49:51   -82.012899c -3.30  -2.00
iter:   9 16:49:56   -81.796590  -2.20  -2.04
iter:  10 16:50:02   -81.773183  -3.38  -2.43
iter:  11 16:50:07   -81.740266c -3.16  -2.39
iter:  12 16:50:12   -81.676429c -3.40  -2.44
iter:  13 16:50:18   -81.673648c -4.21  -2.87
iter:  14 16:50:23   -81.669312c -3.98  -2.88
iter:  15 16:50:28   -81.666346c -4.78  -3.05
iter:  16 16:50:34   -81.666713c -5.10  -3.09
iter:  17 16:50:39   -81.666646c -5.12  -3.08
iter:  18 16:50:44   -81.665583c -5.42  -3.07
iter:  19 16:50:49   -81.665110c -4.87  -3.13
iter:  20 16:50:55   -81.664953c -5.75  -3.24
iter:  21 16:51:00   -81.665086c -6.06  -3.37
iter:  22 16:51:05   -81.664945c -5.87  -3.45
iter:  23 16:51:11   -81.664938c -5.96  -3.58
iter:  24 16:51:16   -81.664773c -5.71  -3.62
iter:  25 16:51:21   -81.664838c -5.96  -3.71
iter:  26 16:51:27   -81.664770c -6.65  -4.01c
iter:  27 16:51:32   -81.664748c -7.03  -4.20c
iter:  28 16:51:37   -81.664717c -6.70  -4.28c
iter:  29 16:51:43   -81.664745c -7.50c -4.39c

Converged after 29 iterations.

Dipole moment: (-0.989267, -0.571153, -0.708611) |e|*Ang

Energy contributions relative to reference atoms: (reference = -13950194.172252)

Kinetic:       -315.727797
Potential:     +256.208431
External:        +0.000000
XC:             -24.992912
Entropy (-ST):   -0.298693
Local:           +2.996879
--------------------------
Free energy:    -81.814092
Extrapolated:   -81.664745

Showing only first 2 kpts
 Kpt  Band  Eigenvalues  Occupancy
  0   149     -0.15261    1.99881
  0   150      0.05630    1.99044
  0   151      0.16555    1.97176
  0   152      0.26277    1.92704

  1   149     -0.58998    1.99999
  1   150     -0.41141    1.99991
  1   151      0.14226    1.97757
  1   152      0.16207    1.97272


Fermi level: 0.59016

No gap

Forces in eV/Ang:
  0 Au   -0.00124   -0.00071   -0.10340
  1 Au   -0.01041    0.01597   -0.05942
  2 Au    0.00501   -0.01467   -0.05992
  3 Au    0.00862   -0.01700   -0.05942
  4 Au   -0.00847   -0.00489   -0.00045
  5 Au   -0.00740   -0.00124   -0.05743
  6 Au   -0.01020    0.01168   -0.05992
  7 Au   -0.00478   -0.00579   -0.05743
  8 Au    0.01004    0.00580    0.07723
  9 Au    0.00546    0.00223    0.03584
 10 Au   -0.00184   -0.00106    0.01978
 11 Au   -0.00257   -0.00551    0.02768
 12 Au    0.00293   -0.15715    0.13579
 13 Au   -0.00606    0.00053    0.02768
 14 Au    0.00738    0.00426    0.03493
 15 Au    0.13348    0.07707    0.13849
 16 Au    0.00466    0.00362    0.03584
 17 Au   -0.13464    0.08111    0.13579
 18 Au    0.12070    0.06969    0.80000
 19 Au   -0.13224    0.07625    0.81117
 20 Au    0.00953    0.01371   -0.00215
 21 Au   -0.00009   -0.15265    0.81117
 22 Au    0.12177    0.07031    0.00236
 23 Au   -0.11625    0.06489    0.00209
 24 Au    0.01664    0.00140   -0.00215
 25 Au   -0.00193   -0.13312    0.00209
 26 Au   -0.00971   -0.00560    0.00277
 27 O     0.00213    0.00123   -2.65796

System changes: positions 

Initializing position-dependent things.

Density initialized from wave functions
                                              
                                              
                                              
                                              
                                              
                                              
                                              
                  Au     Au     Au            
           OAu                                
                   AAu    AAu    Au           
       Au     Au     AAu    Au                
                                              
        Au     Au     AAu    Au     Au        
                                              
                 Au     Au     Au             
                                              
           Au      Au     Au                  
                                              
                                              
                                              
                                              

Positions:
   0 Au     1.476630    0.852533    5.986449    ( 0.0000,  0.0000,  0.0000)
   1 Au     4.429014    0.854719    5.992214    ( 0.0000,  0.0000,  0.0000)
   2 Au     7.384619    0.850704    5.992148    ( 0.0000,  0.0000,  0.0000)
   3 Au     2.954715    3.408279    5.992214    ( 0.0000,  0.0000,  0.0000)
   4 Au     5.906060    3.409865    5.999941    ( 0.0000,  0.0000,  0.0000)
   5 Au     8.859785    3.410343    5.992474    ( 0.0000,  0.0000,  0.0000)
   6 Au     4.429040    5.969916    5.992148    ( 0.0000,  0.0000,  0.0000)
   7 Au     7.383336    5.967627    5.992474    ( 0.0000,  0.0000,  0.0000)
   8 Au    10.338863    5.969146    6.010121    ( 0.0000,  0.0000,  0.0000)
   9 Au     0.000716    1.705545    8.416289    ( 0.0000,  0.0000,  0.0000)
  10 Au     2.953344    1.705114    8.414184    ( 0.0000,  0.0000,  0.0000)
  11 Au     5.906833    1.704531    8.415219    ( 0.0000,  0.0000,  0.0000)
  12 Au     1.477176    4.242538    8.429387    ( 0.0000,  0.0000,  0.0000)
  13 Au     4.429583    4.263202    8.415219    ( 0.0000,  0.0000,  0.0000)
  14 Au     7.384930    4.263691    8.416169    ( 0.0000,  0.0000,  0.0000)
  15 Au     2.971078    6.831112    8.429741    ( 0.0000,  0.0000,  0.0000)
  16 Au     5.907781    6.821486    8.416289    ( 0.0000,  0.0000,  0.0000)
  17 Au     8.843112    6.831642    8.429387    ( 0.0000,  0.0000,  0.0000)
  18 Au     0.015817    0.009132   10.928021    ( 0.0000,  0.0000,  0.0000)
  19 Au     2.936255    0.009992   10.929485    ( 0.0000,  0.0000,  0.0000)
  20 Au     5.908419    0.001797   10.822902    ( 0.0000,  0.0000,  0.0000)
  21 Au     1.476781    2.537876   10.929485    ( 0.0000,  0.0000,  0.0000)
  22 Au     4.446336    2.567093   10.823493    ( 0.0000,  0.0000,  0.0000)
  23 Au     7.368728    2.566383   10.823458    ( 0.0000,  0.0000,  0.0000)
  24 Au     2.955766    5.115943   10.822902    ( 0.0000,  0.0000,  0.0000)
  25 Au     5.906917    5.098314   10.823458    ( 0.0000,  0.0000,  0.0000)
  26 Au     8.859483    5.115025   10.823547    ( 0.0000,  0.0000,  0.0000)
  27 O      1.477072    0.852788   12.474869    ( 0.0000,  0.0000,  0.0000)

Unit cell:
           periodic     x           y           z      points  spacing
  1. axis:    yes    8.860755    0.000000    0.000000    45     0.1705
  2. axis:    yes    4.430378    7.673639    0.000000    45     0.1705
  3. axis:    no     0.000000    0.000000   16.823184    84     0.2003

  Lengths:   8.860755   8.860755  16.823184
  Angles:   90.000000  90.000000  60.000000

Effective grid spacing dv^(1/3) = 0.1888

     iter     time        total  log10-change:
                         energy  eigst   dens
iter:   1 16:51:50   -89.967284  -1.49
iter:   2 16:51:55   -83.111508  -1.77  -1.57
iter:   3 16:52:01   -82.925779  -3.13  -2.13
iter:   4 16:52:06   -82.760985  -2.62  -2.27
iter:   5 16:52:11   -82.736168  -2.73  -2.50
iter:   6 16:52:17   -82.686889c -3.42  -2.58
iter:   7 16:52:22   -82.680797c -3.99  -2.90
iter:   8 16:52:27   -82.675305c -4.30  -2.97
iter:   9 16:52:32   -82.674985c -4.88  -3.19
iter:  10 16:52:38   -82.674617c -4.46  -3.29
iter:  11 16:52:43   -82.674431c -5.52  -3.49
iter:  12 16:52:48   -82.673888c -5.17  -3.54
iter:  13 16:52:54   -82.673871c -5.62  -3.75
iter:  14 16:52:59   -82.673890c -6.09  -3.88
iter:  15 16:53:04   -82.673891c -6.30  -3.97
iter:  16 16:53:10   -82.673866c -7.15  -4.09c
iter:  17 16:53:15   -82.673849c -6.86  -4.18c
iter:  18 16:53:20   -82.673867c -6.29  -4.30c
iter:  19 16:53:26   -82.673848c -7.05  -4.40c
iter:  20 16:53:31   -82.673846c -7.60c -4.59c

Converged after 20 iterations.

Dipole moment: (-2.103968, -1.214726, -0.399665) |e|*Ang

Energy contributions relative to reference atoms: (reference = -13950194.172252)

Kinetic:       -314.739311
Potential:     +255.062459
External:        +0.000000
XC:             -25.863739
Entropy (-ST):   -0.269619
Local:           +3.001555
--------------------------
Free energy:    -82.808655
Extrapolated:   -82.673846

Showing only first 2 kpts
 Kpt  Band  Eigenvalues  Occupancy
  0   149     -0.19616    1.99974
  0   150      0.04025    1.99727
  0   151      0.20900    1.98534
  0   152      0.33461    1.94945

  1   149     -0.53134    1.99999
  1   150     -0.33701    1.99994
  1   151      0.09912    1.99509
  1   152      0.11284    1.99437


Fermi level: 0.69984

No gap

Forces in eV/Ang:
  0 Au   -0.00050   -0.00029   -0.04034
  1 Au   -0.01053   -0.00970   -0.01841
  2 Au    0.00581   -0.02132   -0.01598
  3 Au   -0.01367   -0.00427   -0.01841
  4 Au   -0.00177   -0.00102    0.01115
  5 Au    0.00908    0.00341   -0.01420
  6 Au   -0.01556    0.01570   -0.01598
  7 Au    0.00749    0.00616   -0.01420
  8 Au    0.00390    0.00225    0.17010
  9 Au    0.05224   -0.02245    0.13188
 10 Au   -0.05075   -0.02930    0.12707
 11 Au   -0.00125   -0.03568   -0.03558
 12 Au    0.00310   -0.17228    0.18483
 13 Au   -0.03153    0.01676   -0.03558
 14 Au    0.03470    0.02003   -0.02843
 15 Au    0.14373    0.08298    0.18912
 16 Au    0.00668    0.05647    0.13188
 17 Au   -0.14765    0.08883    0.18483
 18 Au   -0.48806   -0.28178    0.20233
 19 Au    0.47792   -0.27871    0.21358
 20 Au    0.00507   -0.01535   -0.01641
 21 Au   -0.00241    0.55325    0.21358
 22 Au    0.05649    0.03262   -0.02037
 23 Au   -0.05422    0.03302   -0.01723
 24 Au   -0.01076    0.01206   -0.01641
 25 Au    0.00149   -0.06346   -0.01723
 26 Au    0.01312    0.00758   -0.01398
 27 O     0.00675    0.00390   -1.46748

System changes: positions 

Initializing position-dependent things.

Density initialized from wave functions
                                              
                                              
                                              
                                              
                                              
                                              
                                              
                  Au     Au     Au            
           O Au     Au     Au                 
                   Au     Au     Au           
       Au     AAu    AAu    Au                
                                              
        Au      Au    AAu    Au     Au        
                                              
                 Au     Au     Au             
                                              
           Au      Au     Au                  
                                              
                                              
                                              
                                              

Positions:
   0 Au     1.476567    0.852496    5.981294    ( 0.0000,  0.0000,  0.0000)
   1 Au     4.427660    0.853460    5.989867    ( 0.0000,  0.0000,  0.0000)
   2 Au     7.385366    0.847960    5.990116    ( 0.0000,  0.0000,  0.0000)
   3 Au     2.952948    3.407736    5.989867    ( 0.0000,  0.0000,  0.0000)
   4 Au     5.905836    3.409736    6.001380    ( 0.0000,  0.0000,  0.0000)
   5 Au     8.860960    3.410783    5.990669    ( 0.0000,  0.0000,  0.0000)
   6 Au     4.427038    5.971935    5.990116    ( 0.0000,  0.0000,  0.0000)
   7 Au     7.384305    5.968425    5.990669    ( 0.0000,  0.0000,  0.0000)
   8 Au    10.339362    5.969434    6.032025    ( 0.0000,  0.0000,  0.0000)
   9 Au     0.007452    1.702649    8.433284    ( 0.0000,  0.0000,  0.0000)
  10 Au     2.946799    1.701335    8.430566    ( 0.0000,  0.0000,  0.0000)
  11 Au     5.906673    1.699930    8.410617    ( 0.0000,  0.0000,  0.0000)
  12 Au     1.477575    4.220390    8.453164    ( 0.0000,  0.0000,  0.0000)
  13 Au     4.425519    4.265364    8.410617    ( 0.0000,  0.0000,  0.0000)
  14 Au     7.389402    4.266273    8.412485    ( 0.0000,  0.0000,  0.0000)
  15 Au     2.989555    6.841780    8.454071    ( 0.0000,  0.0000,  0.0000)
  16 Au     5.908641    6.828768    8.433284    ( 0.0000,  0.0000,  0.0000)
  17 Au     8.824130    6.843062    8.453164    ( 0.0000,  0.0000,  0.0000)
  18 Au    -0.047195   -0.027248   10.953744    ( 0.0000,  0.0000,  0.0000)
  19 Au     2.997965   -0.025996   10.956654    ( 0.0000,  0.0000,  0.0000)
  20 Au     5.909068   -0.000189   10.820787    ( 0.0000,  0.0000,  0.0000)
  21 Au     1.476469    2.609312   10.956654    ( 0.0000,  0.0000,  0.0000)
  22 Au     4.453565    2.571267   10.820865    ( 0.0000,  0.0000,  0.0000)
  23 Au     7.361790    2.570612   10.821234    ( 0.0000,  0.0000,  0.0000)
  24 Au     2.954370    5.117498   10.820787    ( 0.0000,  0.0000,  0.0000)
  25 Au     5.907110    5.090191   10.821234    ( 0.0000,  0.0000,  0.0000)
  26 Au     8.861180    5.116005   10.821743    ( 0.0000,  0.0000,  0.0000)
  27 O      1.477941    0.853290   12.286824    ( 0.0000,  0.0000,  0.0000)

Unit cell:
           periodic     x           y           z      points  spacing
  1. axis:    yes    8.860755    0.000000    0.000000    45     0.1705
  2. axis:    yes    4.430378    7.673639    0.000000    45     0.1705
  3. axis:    no     0.000000    0.000000   16.823184    84     0.2003

  Lengths:   8.860755   8.860755  16.823184
  Angles:   90.000000  90.000000  60.000000

Effective grid spacing dv^(1/3) = 0.1888

     iter     time        total  log10-change:
                         energy  eigst   dens
iter:   1 16:53:38   -85.462607  -1.81
iter:   2 16:53:43   -83.082009  -2.27  -1.77
iter:   3 16:53:49   -83.059975  -3.59  -2.51
iter:   4 16:53:54   -83.031534c -3.09  -2.59
iter:   5 16:53:59   -83.030742c -3.86  -2.83
iter:   6 16:54:05   -83.020816c -3.85  -2.92
iter:   7 16:54:10   -83.018659c -4.86  -3.21
iter:   8 16:54:15   -83.017840c -4.98  -3.31
iter:   9 16:54:21   -83.017726c -5.55  -3.48
iter:  10 16:54:26   -83.017696c -5.43  -3.60
iter:  11 16:54:31   -83.017620c -5.76  -3.79
iter:  12 16:54:37   -83.017621c -6.41  -3.92
iter:  13 16:54:42   -83.017617c -6.22  -4.00
iter:  14 16:54:47   -83.017593c -6.88  -4.26c
iter:  15 16:54:53   -83.017588c -7.04  -4.39c
iter:  16 16:54:58   -83.017589c -7.39  -4.54c
iter:  17 16:55:03   -83.017587c -7.77c -4.64c

Converged after 17 iterations.

Dipole moment: (4.045402, 2.335614, -0.294115) |e|*Ang

Energy contributions relative to reference atoms: (reference = -13950194.172252)

Kinetic:       -311.625975
Potential:     +252.242088
External:        +0.000000
XC:             -26.532024
Entropy (-ST):   -0.260677
Local:           +3.028663
--------------------------
Free energy:    -83.147925
Extrapolated:   -83.017587

Showing only first 2 kpts
 Kpt  Band  Eigenvalues  Occupancy
  0   149     -0.19150    1.99980
  0   150      0.06239    1.99746
  0   151      0.25045    1.98347
  0   152      0.36115    1.95083

  1   149     -0.51879    1.99999
  1   150     -0.31217    1.99994
  1   151      0.12699    1.99516
  1   152      0.13821    1.99459


Fermi level: 0.72921

No gap

Forces in eV/Ang:
  0 Au    0.00165    0.00095    0.01424
  1 Au   -0.02402   -0.01602    0.02215
  2 Au    0.01755   -0.01941    0.02587
  3 Au   -0.02588   -0.01279    0.02215
  4 Au    0.00089    0.00052    0.00652
  5 Au    0.01923   -0.00730    0.02196
  6 Au   -0.00804    0.02490    0.02587
  7 Au    0.00329    0.02030    0.02196
  8 Au    0.00045    0.00026    0.21850
  9 Au    0.02518   -0.01358    0.09615
 10 Au   -0.02613   -0.01508    0.09596
 11 Au   -0.00097   -0.01112   -0.05146
 12 Au    0.00419   -0.06843    0.04800
 13 Au   -0.01011    0.00472   -0.05146
 14 Au    0.01315    0.00759   -0.04506
 15 Au    0.05545    0.03202    0.04573
 16 Au    0.00084    0.02860    0.09615
 17 Au   -0.05716    0.03784    0.04800
 18 Au   -0.36185   -0.20892   -0.00160
 19 Au    0.37190   -0.21814   -0.00398
 20 Au   -0.00027   -0.00147    0.03045
 21 Au   -0.00296    0.43114   -0.00398
 22 Au    0.02428    0.01402   -0.02996
 23 Au   -0.02408    0.01911   -0.02480
 24 Au   -0.00141    0.00050    0.03045
 25 Au    0.00451   -0.03041   -0.02480
 26 Au    0.00024    0.00014    0.02841
 27 O    -0.00001   -0.00000   -0.72117

System changes: positions 

Initializing position-dependent things.

Density initialized from wave functions
                                               
                                               
                                               
                                               
                                               
                                               
                  Au      Au     Au            
            O                                  
             Au    AAu     AAu    Au           
       Au      Au                              
              Au     AAu     Au                
         Au     Au    AAu     Au     Au        
                                               
                 Au      Au     Au             
                                               
            Au     Au      Au                  
                                               
                                               
                                               
                                               

Positions:
   0 Au     1.476805    0.852634    5.981647    ( 0.0000,  0.0000,  0.0000)
   1 Au     4.423293    0.850317    5.992555    ( 0.0000,  0.0000,  0.0000)
   2 Au     7.388461    0.843732    5.993531    ( 0.0000,  0.0000,  0.0000)
   3 Au     2.948043    3.405526    5.992555    ( 0.0000,  0.0000,  0.0000)
   4 Au     5.905908    3.409777    6.003044    ( 0.0000,  0.0000,  0.0000)
   5 Au     8.864548    3.409820    5.993555    ( 0.0000,  0.0000,  0.0000)
   6 Au     4.424923    5.976729    5.993531    ( 0.0000,  0.0000,  0.0000)
   7 Au     7.385265    5.972014    5.993555    ( 0.0000,  0.0000,  0.0000)
   8 Au    10.339618    5.969581    6.075993    ( 0.0000,  0.0000,  0.0000)
   9 Au     0.014366    1.699225    8.455829    ( 0.0000,  0.0000,  0.0000)
  10 Au     2.939808    1.697299    8.452867    ( 0.0000,  0.0000,  0.0000)
  11 Au     5.906458    1.696180    8.400354    ( 0.0000,  0.0000,  0.0000)
  12 Au     1.478405    4.200396    8.470695    ( 0.0000,  0.0000,  0.0000)
  13 Au     4.422164    4.267053    8.400354    ( 0.0000,  0.0000,  0.0000)
  14 Au     7.393413    4.268589    8.403614    ( 0.0000,  0.0000,  0.0000)
  15 Au     3.005969    6.851256    8.471474    ( 0.0000,  0.0000,  0.0000)
  16 Au     5.909133    6.836467    8.455829    ( 0.0000,  0.0000,  0.0000)
  17 Au     8.807229    6.853777    8.470695    ( 0.0000,  0.0000,  0.0000)
  18 Au    -0.132466   -0.076479   10.962083    ( 0.0000,  0.0000,  0.0000)
  19 Au     3.084300   -0.076541   10.965208    ( 0.0000,  0.0000,  0.0000)
  20 Au     5.909277   -0.001332   10.824706    ( 0.0000,  0.0000,  0.0000)
  21 Au     1.475864    2.709353   10.965208    ( 0.0000,  0.0000,  0.0000)
  22 Au     4.460171    2.575081   10.814957    ( 0.0000,  0.0000,  0.0000)
  23 Au     7.355326    2.575275   10.816323    ( 0.0000,  0.0000,  0.0000)
  24 Au     2.953484    5.118250   10.824706    ( 0.0000,  0.0000,  0.0000)
  25 Au     5.907916    5.082261   10.816323    ( 0.0000,  0.0000,  0.0000)
  26 Au     8.861990    5.116472   10.825457    ( 0.0000,  0.0000,  0.0000)
  27 O      1.478312    0.853504   12.099138    ( 0.0000,  0.0000,  0.0000)

Unit cell:
           periodic     x           y           z      points  spacing
  1. axis:    yes    8.860755    0.000000    0.000000    45     0.1705
  2. axis:    yes    4.430378    7.673639    0.000000    45     0.1705
  3. axis:    no     0.000000    0.000000   16.823184    84     0.2003

  Lengths:   8.860755   8.860755  16.823184
  Angles:   90.000000  90.000000  60.000000

Effective grid spacing dv^(1/3) = 0.1888

     iter     time        total  log10-change:
                         energy  eigst   dens
iter:   1 16:55:10   -85.057480  -1.74
iter:   2 16:55:16   -83.258280  -2.42  -1.82
iter:   3 16:55:21   -83.219766  -3.46  -2.49
iter:   4 16:55:26   -83.184528c -3.20  -2.60
iter:   5 16:55:32   -83.187412c -3.61  -2.79
iter:   6 16:55:37   -83.180306c -4.11  -2.91
iter:   7 16:55:42   -83.176904c -4.55  -3.17
iter:   8 16:55:48   -83.176373c -5.01  -3.40
iter:   9 16:55:53   -83.176310c -5.82  -3.50
iter:  10 16:55:58   -83.176166c -5.28  -3.58
iter:  11 16:56:04   -83.176152c -6.29  -3.83
iter:  12 16:56:09   -83.176098c -6.02  -3.87
iter:  13 16:56:14   -83.176104c -6.52  -4.11c
iter:  14 16:56:20   -83.176092c -6.57  -4.13c
iter:  15 16:56:25   -83.176088c -7.36  -4.34c
iter:  16 16:56:30   -83.176087c -6.89  -4.41c
iter:  17 16:56:36   -83.176088c -7.42c -4.59c

Converged after 17 iterations.

Dipole moment: (11.959629, 6.904895, -0.241874) |e|*Ang

Energy contributions relative to reference atoms: (reference = -13950194.172252)

Kinetic:       -304.677587
Potential:     +246.127317
External:        +0.000000
XC:             -27.566178
Entropy (-ST):   -0.257628
Local:           +3.069173
--------------------------
Free energy:    -83.304902
Extrapolated:   -83.176088

Showing only first 2 kpts
 Kpt  Band  Eigenvalues  Occupancy
  0   149     -0.17750    1.99978
  0   150      0.09392    1.99666
  0   151      0.28362    1.97797
  0   152      0.36938    1.94884

  1   149     -0.48115    1.99999
  1   150     -0.28913    1.99993
  1   151      0.16210    1.99341
  1   152      0.17669    1.99238


Fermi level: 0.73338

No gap

Forces in eV/Ang:
  0 Au    0.00173    0.00100    0.05144
  1 Au   -0.02638    0.00058    0.03668
  2 Au    0.02035    0.00668    0.03936
  3 Au   -0.01268   -0.02313    0.03668
  4 Au    0.00242    0.00140   -0.01443
  5 Au    0.00574   -0.02232    0.03474
  6 Au    0.01596    0.01429    0.03936
  7 Au   -0.01646    0.01613    0.03474
  8 Au   -0.00426   -0.00246    0.17482
  9 Au   -0.01008   -0.00008    0.05195
 10 Au    0.00537    0.00310    0.05626
 11 Au    0.00127    0.01307   -0.03003
 12 Au    0.00118    0.07588   -0.10715
 13 Au    0.01195   -0.00543   -0.03003
 14 Au   -0.00745   -0.00430   -0.02997
 15 Au   -0.06513   -0.03760   -0.10587
 16 Au   -0.00511   -0.00869    0.05195
 17 Au    0.06630   -0.03692   -0.10715
 18 Au    0.08009    0.04624    0.01442
 19 Au   -0.06386    0.03583    0.00701
 20 Au   -0.00068    0.01000    0.05054
 21 Au   -0.00090   -0.07322    0.00701
 22 Au   -0.01239   -0.00715   -0.03653
 23 Au    0.00961   -0.00280   -0.03203
 24 Au    0.00832   -0.00559    0.05054
 25 Au    0.00237    0.00972   -0.03203
 26 Au   -0.00664   -0.00383    0.04542
 27 O    -0.00059   -0.00034   -0.30452

System changes: positions 

Initializing position-dependent things.

Density initialized from wave functions
                                               
                                               
                                               
                                               
                                               
                                               
                  Au      Au     Au            
             Au                                
            O       AAu    AAu    Au           
       Au       Au    Au                       
              Au      Au     Au                
         Au     Au     AAu    Au     Au        
                                               
                 Au      Au     Au             
                                               
            Au     Au      Au                  
                                               
                                               
                                               
                                               

Positions:
   0 Au     1.477793    0.853204    5.997798    ( 0.0000,  0.0000,  0.0000)
   1 Au     4.409761    0.844765    6.008394    ( 0.0000,  0.0000,  0.0000)
   2 Au     7.398640    0.838300    6.011143    ( 0.0000,  0.0000,  0.0000)
   3 Au     2.936468    3.396582    6.008394    ( 0.0000,  0.0000,  0.0000)
   4 Au     5.906703    3.410237    6.002496    ( 0.0000,  0.0000,  0.0000)
   5 Au     8.872619    3.402872    6.008690    ( 0.0000,  0.0000,  0.0000)
   6 Au     4.425309    5.988260    6.011143    ( 0.0000,  0.0000,  0.0000)
   7 Au     7.383283    5.982477    6.008690    ( 0.0000,  0.0000,  0.0000)
   8 Au    10.338926    5.969181    6.182404    ( 0.0000,  0.0000,  0.0000)
   9 Au     0.019081    1.695398    8.494116    ( 0.0000,  0.0000,  0.0000)
  10 Au     2.933863    1.693866    8.491952    ( 0.0000,  0.0000,  0.0000)
  11 Au     5.906333    1.696460    8.377343    ( 0.0000,  0.0000,  0.0000)
  12 Au     1.480120    4.196102    8.460189    ( 0.0000,  0.0000,  0.0000)
  13 Au     4.422344    4.266805    8.377343    ( 0.0000,  0.0000,  0.0000)
  14 Au     7.394990    4.269499    8.382785    ( 0.0000,  0.0000,  0.0000)
  15 Au     3.008610    6.852781    8.459938    ( 0.0000,  0.0000,  0.0000)
  16 Au     5.908176    6.842464    8.494116    ( 0.0000,  0.0000,  0.0000)
  17 Au     8.804368    6.857410    8.460189    ( 0.0000,  0.0000,  0.0000)
  18 Au    -0.228885   -0.132147   10.958016    ( 0.0000,  0.0000,  0.0000)
  19 Au     3.188172   -0.137876   10.958201    ( 0.0000,  0.0000,  0.0000)
  20 Au     5.908777    0.001075   10.846803    ( 0.0000,  0.0000,  0.0000)
  21 Au     1.474682    2.829976   10.958201    ( 0.0000,  0.0000,  0.0000)
  22 Au     4.465272    2.578026   10.798243    ( 0.0000,  0.0000,  0.0000)
  23 Au     7.349744    2.580932   10.802226    ( 0.0000,  0.0000,  0.0000)
  24 Au     2.955319    5.116613   10.846803    ( 0.0000,  0.0000,  0.0000)
  25 Au     5.910025    5.074599   10.802226    ( 0.0000,  0.0000,  0.0000)
  26 Au     8.859851    5.115238   10.845747    ( 0.0000,  0.0000,  0.0000)
  27 O      1.477709    0.853156   11.833236    ( 0.0000,  0.0000,  0.0000)

Unit cell:
           periodic     x           y           z      points  spacing
  1. axis:    yes    8.860755    0.000000    0.000000    45     0.1705
  2. axis:    yes    4.430378    7.673639    0.000000    45     0.1705
  3. axis:    no     0.000000    0.000000   16.823184    84     0.2003

  Lengths:   8.860755   8.860755  16.823184
  Angles:   90.000000  90.000000  60.000000

Effective grid spacing dv^(1/3) = 0.1888

     iter     time        total  log10-change:
                         energy  eigst   dens
iter:   1 16:56:43   -84.534003  -1.57
iter:   2 16:56:48   -83.143567  -2.42  -1.88
iter:   3 16:56:53   -83.089026  -3.42  -2.32
iter:   4 16:56:59   -83.037120c -2.81  -2.41
iter:   5 16:57:04   -83.033068c -3.81  -2.66
iter:   6 16:57:09   -83.026643c -3.78  -2.78
iter:   7 16:57:15   -83.021580c -4.45  -3.08
iter:   8 16:57:20   -83.021423c -5.08  -3.24
iter:   9 16:57:25   -83.020821c -4.89  -3.33
iter:  10 16:57:30   -83.020792c -5.35  -3.65
iter:  11 16:57:36   -83.020759c -6.32  -3.78
iter:  12 16:57:41   -83.020662c -6.14  -3.84
iter:  13 16:57:46   -83.020641c -6.42  -4.00c
iter:  14 16:57:52   -83.020639c -6.83  -4.12c
iter:  15 16:57:57   -83.020632c -6.85  -4.26c
iter:  16 16:58:02   -83.020641c -7.13  -4.34c
iter:  17 16:58:08   -83.020644c -7.60c -4.50c

Converged after 17 iterations.

Dipole moment: (19.774122, 11.416595, -0.195590) |e|*Ang

Energy contributions relative to reference atoms: (reference = -13950194.172252)

Kinetic:       -287.267406
Potential:     +231.121786
External:        +0.000000
XC:             -29.872453
Entropy (-ST):   -0.263601
Local:           +3.129230
--------------------------
Free energy:    -83.152444
Extrapolated:   -83.020644

Showing only first 2 kpts
 Kpt  Band  Eigenvalues  Occupancy
  0   149     -0.14325    1.99968
  0   150      0.17302    1.99256
  0   151      0.34905    1.95750
  0   152      0.38299    1.94083

  1   149     -0.31539    1.99994
  1   150     -0.22518    1.99986
  1   151      0.24410    1.98491
  1   152      0.27447    1.97961


Fermi level: 0.73204

No gap

Forces in eV/Ang:
  0 Au   -0.00736   -0.00425    0.07444
  1 Au    0.00085    0.06266   -0.01447
  2 Au    0.00303    0.07832   -0.02175
  3 Au    0.05469   -0.03059   -0.01447
  4 Au    0.00089    0.00052   -0.08723
  5 Au   -0.05713   -0.04248   -0.01564
  6 Au    0.06934   -0.03654   -0.02175
  7 Au   -0.06536   -0.02824   -0.01564
  8 Au   -0.00977   -0.00564   -0.22574
  9 Au   -0.03209    0.01598   -0.02216
 10 Au    0.02532    0.01462   -0.01820
 11 Au    0.00387    0.00279    0.08241
 12 Au   -0.00934    0.14937   -0.06445
 13 Au    0.00435    0.00196    0.08241
 14 Au    0.00260    0.00150    0.06855
 15 Au   -0.12060   -0.06963   -0.02149
 16 Au   -0.00221   -0.03578   -0.02216
 17 Au    0.12469   -0.08277   -0.06445
 18 Au    0.69415    0.40077    0.05740
 19 Au   -0.77830    0.45571    0.08598
 20 Au    0.04156   -0.01588   -0.04063
 21 Au    0.00551   -0.90188    0.08598
 22 Au   -0.02963   -0.01711   -0.02376
 23 Au    0.02515   -0.02775   -0.02678
 24 Au    0.00703    0.04393   -0.04063
 25 Au   -0.01146    0.03565   -0.02678
 26 Au    0.02219    0.01281   -0.04315
 27 O     0.03774    0.02179    0.21335

System changes: positions 

Initializing position-dependent things.

Density initialized from wave functions
                                               
                                               
                                               
                                               
                                               
                                               
                  Au      Au     Au            
                                               
            OAu    AAu     AAu    Au           
       Au      Au     Au                       
              Au     Au      Au                
         Au     Au    AAu     Au     Au        
                                               
                 Au      Au     Au             
                                               
            Au     Au      Au                  
                                               
                                               
                                               
                                               

Positions:
   0 Au     1.477004    0.852749    5.990318    ( 0.0000,  0.0000,  0.0000)
   1 Au     4.418340    0.850348    5.998398    ( 0.0000,  0.0000,  0.0000)
   2 Au     7.392284    0.844518    5.999832    ( 0.0000,  0.0000,  0.0000)
   3 Au     2.945593    3.401221    5.998398    ( 0.0000,  0.0000,  0.0000)
   4 Au     5.906276    3.409990    6.000178    ( 0.0000,  0.0000,  0.0000)
   5 Au     8.865641    3.405806    5.999103    ( 0.0000,  0.0000,  0.0000)
   6 Au     4.427516    5.979647    5.999832    ( 0.0000,  0.0000,  0.0000)
   7 Au     7.382335    5.974967    5.999103    ( 0.0000,  0.0000,  0.0000)
   8 Au    10.338965    5.969204    6.108733    ( 0.0000,  0.0000,  0.0000)
   9 Au     0.014256    1.698585    8.468328    ( 0.0000,  0.0000,  0.0000)
  10 Au     2.939163    1.696927    8.465930    ( 0.0000,  0.0000,  0.0000)
  11 Au     5.906603    1.697108    8.394526    ( 0.0000,  0.0000,  0.0000)
  12 Au     1.478692    4.207430    8.459818    ( 0.0000,  0.0000,  0.0000)
  13 Au     4.423040    4.266714    8.394526    ( 0.0000,  0.0000,  0.0000)
  14 Au     7.393414    4.268590    8.398018    ( 0.0000,  0.0000,  0.0000)
  15 Au     2.999835    6.847715    8.461336    ( 0.0000,  0.0000,  0.0000)
  16 Au     5.908524    6.836693    8.468328    ( 0.0000,  0.0000,  0.0000)
  17 Au     8.813465    6.850509    8.459818    ( 0.0000,  0.0000,  0.0000)
  18 Au    -0.135863   -0.078440   10.964441    ( 0.0000,  0.0000,  0.0000)
  19 Au     3.088872   -0.079441   10.966978    ( 0.0000,  0.0000,  0.0000)
  20 Au     5.909939   -0.000445   10.832432    ( 0.0000,  0.0000,  0.0000)
  21 Au     1.475638    2.714762   10.966978    ( 0.0000,  0.0000,  0.0000)
  22 Au     4.459958    2.574958   10.807986    ( 0.0000,  0.0000,  0.0000)
  23 Au     7.355141    2.575862   10.810216    ( 0.0000,  0.0000,  0.0000)
  24 Au     2.954584    5.118380   10.832432    ( 0.0000,  0.0000,  0.0000)
  25 Au     5.908332    5.081808   10.810216    ( 0.0000,  0.0000,  0.0000)
  26 Au     8.861533    5.116209   10.832366    ( 0.0000,  0.0000,  0.0000)
  27 O      1.478904    0.853846   12.015666    ( 0.0000,  0.0000,  0.0000)

Unit cell:
           periodic     x           y           z      points  spacing
  1. axis:    yes    8.860755    0.000000    0.000000    45     0.1705
  2. axis:    yes    4.430378    7.673639    0.000000    45     0.1705
  3. axis:    no     0.000000    0.000000   16.823184    84     0.2003

  Lengths:   8.860755   8.860755  16.823184
  Angles:   90.000000  90.000000  60.000000

Effective grid spacing dv^(1/3) = 0.1888

     iter     time        total  log10-change:
                         energy  eigst   dens
iter:   1 16:58:15   -84.202745  -1.59
iter:   2 16:58:20   -83.353168  -2.71  -1.99
iter:   3 16:58:26   -83.248713  -3.18  -2.34
iter:   4 16:58:31   -83.202595c -3.04  -2.50
iter:   5 16:58:36   -83.198421c -4.13  -2.73
iter:   6 16:58:41   -83.195170c -3.81  -2.77
iter:   7 16:58:47   -83.193210c -4.35  -3.03
iter:   8 16:58:52   -83.189474c -4.21  -3.16
iter:   9 16:58:57   -83.189392c -5.36  -3.39
iter:  10 16:59:03   -83.189114c -4.96  -3.45
iter:  11 16:59:08   -83.189114c -5.56  -3.76
iter:  12 16:59:13   -83.189071c -6.04  -3.83
iter:  13 16:59:19   -83.189031c -6.30  -3.97
iter:  14 16:59:24   -83.189000c -6.74  -4.11c
iter:  15 16:59:29   -83.188986c -7.21  -4.21c
iter:  16 16:59:35   -83.188994c -6.93  -4.30c
iter:  17 16:59:40   -83.188998c -7.66c -4.38c

Converged after 17 iterations.

Dipole moment: (12.089629, 6.979951, -0.208181) |e|*Ang

Energy contributions relative to reference atoms: (reference = -13950194.172252)

Kinetic:       -299.836412
Potential:     +241.997151
External:        +0.000000
XC:             -28.307588
Entropy (-ST):   -0.258413
Local:           +3.087058
--------------------------
Free energy:    -83.318204
Extrapolated:   -83.188998

Showing only first 2 kpts
 Kpt  Band  Eigenvalues  Occupancy
  0   149     -0.16333    1.99977
  0   150      0.12088    1.99610
  0   151      0.31842    1.97219
  0   152      0.38750    1.94527

  1   149     -0.43845    1.99999
  1   150     -0.27310    1.99992
  1   151      0.20147    1.99128
  1   152      0.21967    1.98955


Fermi level: 0.74457

No gap

Forces in eV/Ang:
  0 Au   -0.00139   -0.00080    0.05900
  1 Au   -0.01516    0.01295    0.02494
  2 Au    0.01256    0.01661    0.02503
  3 Au    0.00364   -0.01960    0.02494
  4 Au    0.00003    0.00002   -0.02085
  5 Au   -0.00772   -0.02297    0.02131
  6 Au    0.02067    0.00257    0.02503
  7 Au   -0.02375    0.00480    0.02131
  8 Au   -0.00172   -0.00099    0.03650
  9 Au   -0.00430    0.00140    0.02078
 10 Au    0.00164    0.00095    0.02395
 11 Au   -0.00056   -0.00090   -0.00234
 12 Au    0.00011    0.03652    0.00049
 13 Au   -0.00106   -0.00003   -0.00234
 14 Au    0.00369    0.00213   -0.00232
 15 Au   -0.03262   -0.01883    0.00113
 16 Au   -0.00094   -0.00443    0.02078
 17 Au    0.03168   -0.01816    0.00049
 18 Au   -0.18241   -0.10531   -0.15789
 19 Au    0.19858   -0.11531   -0.16770
 20 Au   -0.00175   -0.02907   -0.00164
 21 Au   -0.00057    0.22963   -0.16770
 22 Au    0.00347    0.00201   -0.02511
 23 Au   -0.00463    0.00510   -0.02250
 24 Au   -0.02606    0.01302   -0.00164
 25 Au    0.00210   -0.00656   -0.02250
 26 Au    0.02849    0.01645   -0.00587
 27 O    -0.00131   -0.00076    0.32930

System changes: positions 

Initializing position-dependent things.

Density initialized from wave functions
                                               
                                               
                                               
                                               
                                               
                                               
                  Au      Au     Au            
                                               
            OAu    AAu     AAu    Au           
       Au      Au     Au                       
              Au     Au      Au                
         Au     Au     Au     Au     Au        
                                               
                 Au      Au     Au             
                                               
            Au     Au      Au                  
                                               
                                               
                                               
                                               

Positions:
   0 Au     1.476865    0.852668    6.000083    ( 0.0000,  0.0000,  0.0000)
   1 Au     4.415341    0.852461    6.002771    ( 0.0000,  0.0000,  0.0000)
   2 Au     7.394736    0.847527    6.004269    ( 0.0000,  0.0000,  0.0000)
   3 Au     2.945923    3.397567    6.002771    ( 0.0000,  0.0000,  0.0000)
   4 Au     5.906424    3.410076    5.996159    ( 0.0000,  0.0000,  0.0000)
   5 Au     8.864480    3.401713    6.002983    ( 0.0000,  0.0000,  0.0000)
   6 Au     4.431348    5.980265    6.004269    ( 0.0000,  0.0000,  0.0000)
   7 Au     7.378210    5.976009    6.002983    ( 0.0000,  0.0000,  0.0000)
   8 Au    10.338434    5.968898    6.119277    ( 0.0000,  0.0000,  0.0000)
   9 Au     0.012882    1.698917    8.473043    ( 0.0000,  0.0000,  0.0000)
  10 Au     2.939927    1.697368    8.471247    ( 0.0000,  0.0000,  0.0000)
  11 Au     5.906662    1.697758    8.393645    ( 0.0000,  0.0000,  0.0000)
  12 Au     1.478656    4.217038    8.453289    ( 0.0000,  0.0000,  0.0000)
  13 Au     4.423632    4.266440    8.393645    ( 0.0000,  0.0000,  0.0000)
  14 Au     7.393423    4.268595    8.396975    ( 0.0000,  0.0000,  0.0000)
  15 Au     2.991555    6.842934    8.455501    ( 0.0000,  0.0000,  0.0000)
  16 Au     5.908124    6.835336    8.473043    ( 0.0000,  0.0000,  0.0000)
  17 Au     8.821768    6.845673    8.453289    ( 0.0000,  0.0000,  0.0000)
  18 Au    -0.141426   -0.081652   10.949786    ( 0.0000,  0.0000,  0.0000)
  19 Au     3.095823   -0.083502   10.951308    ( 0.0000,  0.0000,  0.0000)
  20 Au     5.910288   -0.003018   10.834568    ( 0.0000,  0.0000,  0.0000)
  21 Au     1.475597    2.722812   10.951308    ( 0.0000,  0.0000,  0.0000)
  22 Au     4.459298    2.574577   10.803125    ( 0.0000,  0.0000,  0.0000)
  23 Au     7.355476    2.575899   10.805831    ( 0.0000,  0.0000,  0.0000)
  24 Au     2.952530    5.119969   10.834568    ( 0.0000,  0.0000,  0.0000)
  25 Au     5.908532    5.082080   10.805831    ( 0.0000,  0.0000,  0.0000)
  26 Au     8.864307    5.117810   10.833760    ( 0.0000,  0.0000,  0.0000)
  27 O      1.479243    0.854042   12.034559    ( 0.0000,  0.0000,  0.0000)

Unit cell:
           periodic     x           y           z      points  spacing
  1. axis:    yes    8.860755    0.000000    0.000000    45     0.1705
  2. axis:    yes    4.430378    7.673639    0.000000    45     0.1705
  3. axis:    no     0.000000    0.000000   16.823184    84     0.2003

  Lengths:   8.860755   8.860755  16.823184
  Angles:   90.000000  90.000000  60.000000

Effective grid spacing dv^(1/3) = 0.1888

     iter     time        total  log10-change:
                         energy  eigst   dens
iter:   1 16:59:47   -83.270171  -2.88
iter:   2 16:59:52   -83.221492  -4.04  -2.65
iter:   3 16:59:58   -83.203764c -3.95  -2.84
iter:   4 17:00:03   -83.201761c -4.57  -3.11
iter:   5 17:00:08   -83.200690c -4.31  -3.29
iter:   6 17:00:14   -83.201079c -4.79  -3.38
iter:   7 17:00:19   -83.200059c -5.29  -3.59
iter:   8 17:00:24   -83.200068c -6.70  -3.88
iter:   9 17:00:30   -83.200006c -6.07  -3.95
iter:  10 17:00:35   -83.200016c -6.73  -4.22c
iter:  11 17:00:40   -83.200022c -7.61c -4.31c

Converged after 11 iterations.

Dipole moment: (12.660048, 7.309282, -0.230037) |e|*Ang

Energy contributions relative to reference atoms: (reference = -13950194.172252)

Kinetic:       -299.609000
Potential:     +241.863519
External:        +0.000000
XC:             -28.401754
Entropy (-ST):   -0.258120
Local:           +3.076273
--------------------------
Free energy:    -83.329082
Extrapolated:   -83.200022

Showing only first 2 kpts
 Kpt  Band  Eigenvalues  Occupancy
  0   149     -0.17015    1.99978
  0   150      0.11569    1.99612
  0   151      0.30628    1.97418
  0   152      0.37893    1.94733

  1   149     -0.45252    1.99999
  1   150     -0.27761    1.99992
  1   151      0.18963    1.99189
  1   152      0.20608    1.99044


Fermi level: 0.73996

No gap

Forces in eV/Ang:
  0 Au   -0.00336   -0.00194    0.03992
  1 Au   -0.00348    0.01151    0.00928
  2 Au    0.00292    0.01036    0.00814
  3 Au    0.00823   -0.00877    0.00928
  4 Au   -0.00189   -0.00109   -0.01840
  5 Au   -0.01031   -0.01128    0.00601
  6 Au    0.01043   -0.00265    0.00814
  7 Au   -0.01492   -0.00328    0.00601
  8 Au   -0.00018   -0.00010   -0.04011
  9 Au    0.00156   -0.00034    0.00174
 10 Au   -0.00401   -0.00232    0.00179
 11 Au   -0.00045   -0.00102    0.00023
 12 Au   -0.00003   -0.01732    0.02989
 13 Au   -0.00111    0.00012    0.00023
 14 Au    0.00228    0.00132    0.00041
 15 Au    0.01390    0.00802    0.03065
 16 Au    0.00049    0.00152    0.00174
 17 Au   -0.01502    0.00863    0.02989
 18 Au    0.01606    0.00927   -0.02311
 19 Au   -0.01245    0.00879   -0.02601
 20 Au    0.00046   -0.00251   -0.00289
 21 Au    0.00139   -0.01518   -0.02601
 22 Au    0.01544    0.00892    0.00207
 23 Au   -0.01505    0.00947    0.00135
 24 Au   -0.00195    0.00165   -0.00289
 25 Au    0.00068   -0.01777    0.00135
 26 Au    0.00590    0.00341   -0.00507
 27 O     0.00504    0.00291   -0.06454

System changes: positions 

Initializing position-dependent things.

Density initialized from wave functions
                                               
                                               
                                               
                                               
                                               
                                               
                  Au      Au     Au            
                                               
            OAu    AAu     AAu    Au           
       Au      Au     Au                       
              Au     Au      Au                
         Au     Au     Au     Au     Au        
                                               
                 Au      Au     Au             
                                               
            Au     Au      Au                  
                                               
                                               
                                               
                                               

Positions:
   0 Au     1.476452    0.852430    6.007026    ( 0.0000,  0.0000,  0.0000)
   1 Au     4.414047    0.854183    6.004966    ( 0.0000,  0.0000,  0.0000)
   2 Au     7.395788    0.849302    6.006371    ( 0.0000,  0.0000,  0.0000)
   3 Au     2.946768    3.395585    6.004966    ( 0.0000,  0.0000,  0.0000)
   4 Au     5.906251    3.409976    5.993071    ( 0.0000,  0.0000,  0.0000)
   5 Au     8.863144    3.399389    6.004693    ( 0.0000,  0.0000,  0.0000)
   6 Au     4.433411    5.980289    6.006371    ( 0.0000,  0.0000,  0.0000)
   7 Au     7.375529    5.976014    6.004693    ( 0.0000,  0.0000,  0.0000)
   8 Au    10.338283    5.968810    6.118784    ( 0.0000,  0.0000,  0.0000)
   9 Au     0.012946    1.698846    8.475190    ( 0.0000,  0.0000,  0.0000)
  10 Au     2.939425    1.697078    8.473529    ( 0.0000,  0.0000,  0.0000)
  11 Au     5.906623    1.697699    8.393100    ( 0.0000,  0.0000,  0.0000)
  12 Au     1.478670    4.216699    8.455555    ( 0.0000,  0.0000,  0.0000)
  13 Au     4.423562    4.266436    8.393100    ( 0.0000,  0.0000,  0.0000)
  14 Au     7.393803    4.268814    8.396454    ( 0.0000,  0.0000,  0.0000)
  15 Au     2.991713    6.843026    8.458077    ( 0.0000,  0.0000,  0.0000)
  16 Au     5.908094    6.835427    8.475190    ( 0.0000,  0.0000,  0.0000)
  17 Au     8.821481    6.845855    8.455555    ( 0.0000,  0.0000,  0.0000)
  18 Au    -0.142247   -0.082126   10.944555    ( 0.0000,  0.0000,  0.0000)
  19 Au     3.097238   -0.084164   10.945582    ( 0.0000,  0.0000,  0.0000)
  20 Au     5.910519   -0.003800   10.835010    ( 0.0000,  0.0000,  0.0000)
  21 Au     1.475731    2.724369   10.945582    ( 0.0000,  0.0000,  0.0000)
  22 Au     4.461123    2.575630   10.801984    ( 0.0000,  0.0000,  0.0000)
  23 Au     7.353620    2.577133   10.804755    ( 0.0000,  0.0000,  0.0000)
  24 Au     2.951969    5.120559   10.835010    ( 0.0000,  0.0000,  0.0000)
  25 Au     5.908673    5.079855   10.804755    ( 0.0000,  0.0000,  0.0000)
  26 Au     8.865532    5.118517   10.833769    ( 0.0000,  0.0000,  0.0000)
  27 O      1.479992    0.854474   12.022673    ( 0.0000,  0.0000,  0.0000)

Unit cell:
           periodic     x           y           z      points  spacing
  1. axis:    yes    8.860755    0.000000    0.000000    45     0.1705
  2. axis:    yes    4.430378    7.673639    0.000000    45     0.1705
  3. axis:    no     0.000000    0.000000   16.823184    84     0.2003

  Lengths:   8.860755   8.860755  16.823184
  Angles:   90.000000  90.000000  60.000000

Effective grid spacing dv^(1/3) = 0.1888

     iter     time        total  log10-change:
                         energy  eigst   dens
iter:   1 17:00:48   -83.214442  -3.69
iter:   2 17:00:53   -83.203181  -4.69  -2.90
iter:   3 17:00:58   -83.201944c -5.03  -3.24
iter:   4 17:01:04   -83.201276c -4.89  -3.43
iter:   5 17:01:09   -83.201322c -5.78  -3.81
iter:   6 17:01:14   -83.201322c -6.26  -3.95
iter:   7 17:01:20   -83.201270c -6.65  -4.10c
iter:   8 17:01:25   -83.201267c -7.38  -4.29c
iter:   9 17:01:30   -83.201263c -7.22  -4.37c
iter:  10 17:01:35   -83.201274c -7.41c -4.62c

Converged after 10 iterations.

Dipole moment: (12.890456, 7.442308, -0.225985) |e|*Ang

Energy contributions relative to reference atoms: (reference = -13950194.172252)

Kinetic:       -298.033811
Potential:     +240.479119
External:        +0.000000
XC:             -28.606529
Entropy (-ST):   -0.257978
Local:           +3.088936
--------------------------
Free energy:    -83.330263
Extrapolated:   -83.201274

Showing only first 2 kpts
 Kpt  Band  Eigenvalues  Occupancy
  0   149     -0.16785    1.99978
  0   150      0.11797    1.99609
  0   151      0.30883    1.97393
  0   152      0.38005    1.94757

  1   149     -0.44721    1.99999
  1   150     -0.27691    1.99992
  1   151      0.19266    1.99177
  1   152      0.20899    1.99032


Fermi level: 0.74154

No gap

Forces in eV/Ang:
  0 Au   -0.00221   -0.00127    0.02113
  1 Au    0.00439   -0.00457    0.00387
  2 Au   -0.00622   -0.00669    0.00257
  3 Au   -0.00176    0.00608    0.00387
  4 Au   -0.00196   -0.00113   -0.01138
  5 Au   -0.00005    0.00523    0.00113
  6 Au   -0.00890   -0.00204    0.00257
  7 Au    0.00450   -0.00266    0.00113
  8 Au   -0.00018   -0.00010   -0.03011
  9 Au   -0.00262    0.00111    0.00985
 10 Au    0.00114    0.00066    0.00911
 11 Au   -0.00082    0.00232    0.00049
 12 Au    0.00104   -0.00696    0.00041
 13 Au    0.00160   -0.00187    0.00049
 14 Au   -0.00187   -0.00108   -0.00022
 15 Au    0.00538    0.00311    0.00110
 16 Au   -0.00035   -0.00282    0.00985
 17 Au   -0.00550    0.00438    0.00041
 18 Au    0.01526    0.00881   -0.02181
 19 Au   -0.01079    0.00715   -0.02552
 20 Au    0.00118    0.00981    0.00134
 21 Au    0.00079   -0.01292   -0.02552
 22 Au   -0.00008   -0.00005    0.00178
 23 Au    0.00147    0.00012    0.00159
 24 Au    0.00909   -0.00388    0.00134
 25 Au    0.00083    0.00121    0.00159
 26 Au   -0.00556   -0.00321    0.00065
 27 O     0.00140    0.00081    0.02882

System changes: positions 

Initializing position-dependent things.

Density initialized from wave functions
                                              
                                              
                                              
                                              
                                              
                                              
                  Au     Au     Au            
            O                                 
             Au    AAu    AAu    Au           
                                              
       Au     AAu    AAu    Au                
        Au      Au    AAu    Au     Au        
                                              
                 Au     Au     Au             
           Au                                 
                   Au     Au                  
                                              
                                              
                                              
                                              

Positions:
   0 Au     1.467218    0.847099    6.161138    ( 0.0000,  0.0000,  0.0000)
   1 Au     4.394855    0.885617    6.051131    ( 0.0000,  0.0000,  0.0000)
   2 Au     7.409142    0.883136    6.049201    ( 0.0000,  0.0000,  0.0000)
   3 Au     2.964394    3.363248    6.051131    ( 0.0000,  0.0000,  0.0000)
   4 Au     5.901974    3.407506    5.920680    ( 0.0000,  0.0000,  0.0000)
   5 Au     8.835086    3.358398    6.039270    ( 0.0000,  0.0000,  0.0000)
   6 Au     4.469389    5.974937    6.049201    ( 0.0000,  0.0000,  0.0000)
   7 Au     7.326001    5.972210    6.039270    ( 0.0000,  0.0000,  0.0000)
   8 Au    10.333936    5.966301    6.066249    ( 0.0000,  0.0000,  0.0000)
   9 Au     0.000856    1.703080    8.511079    ( 0.0000,  0.0000,  0.0000)
  10 Au     2.941625    1.698348    8.512720    ( 0.0000,  0.0000,  0.0000)
  11 Au     5.905663    1.704118    8.393954    ( 0.0000,  0.0000,  0.0000)
  12 Au     1.478873    4.252388    8.455546    ( 0.0000,  0.0000,  0.0000)
  13 Au     4.428641    4.262396    8.393954    ( 0.0000,  0.0000,  0.0000)
  14 Au     7.394363    4.269137    8.394913    ( 0.0000,  0.0000,  0.0000)
  15 Au     2.959169    6.824237    8.466224    ( 0.0000,  0.0000,  0.0000)
  16 Au     5.905716    6.822841    8.511079    ( 0.0000,  0.0000,  0.0000)
  17 Au     8.852490    6.828187    8.455546    ( 0.0000,  0.0000,  0.0000)
  18 Au    -0.068266   -0.039413   10.798627    ( 0.0000,  0.0000,  0.0000)
  19 Au     3.038912   -0.046592   10.785730    ( 0.0000,  0.0000,  0.0000)
  20 Au     5.916385   -0.012730   10.843769    ( 0.0000,  0.0000,  0.0000)
  21 Au     1.479107    2.655071   10.785730    ( 0.0000,  0.0000,  0.0000)
  22 Au     4.480081    2.586576   10.777720    ( 0.0000,  0.0000,  0.0000)
  23 Au     7.334466    2.591156   10.781640    ( 0.0000,  0.0000,  0.0000)
  24 Au     2.947168    5.130105   10.843769    ( 0.0000,  0.0000,  0.0000)
  25 Au     5.911240    5.056256   10.781640    ( 0.0000,  0.0000,  0.0000)
  26 Au     8.886485    5.130615   10.833368    ( 0.0000,  0.0000,  0.0000)
  27 O      1.493774    0.862431   12.094793    ( 0.0000,  0.0000,  0.0000)

Unit cell:
           periodic     x           y           z      points  spacing
  1. axis:    yes    8.860755    0.000000    0.000000    45     0.1705
  2. axis:    yes    4.430378    7.673639    0.000000    45     0.1705
  3. axis:    no     0.000000    0.000000   16.823184    84     0.2003

  Lengths:   8.860755   8.860755  16.823184
  Angles:   90.000000  90.000000  60.000000

Effective grid spacing dv^(1/3) = 0.1888

     iter     time        total  log10-change:
                         energy  eigst   dens
iter:   1 17:01:43   -85.145748  -1.18
iter:   2 17:01:48   -83.836665  -2.57  -1.77
iter:   3 17:01:53   -83.003141  -2.07  -1.93
iter:   4 17:01:59   -82.985860  -3.34  -2.33
iter:   5 17:02:04   -82.946396c -2.98  -2.39
iter:   6 17:02:09   -82.930598c -3.41  -2.54
iter:   7 17:02:15   -82.919797c -3.75  -2.77
iter:   8 17:02:20   -82.918789c -4.80  -3.01
iter:   9 17:02:25   -82.916840c -4.52  -3.07
iter:  10 17:02:31   -82.916972c -4.82  -3.29
iter:  11 17:02:36   -82.916819c -5.69  -3.44
iter:  12 17:02:41   -82.916518c -5.08  -3.53
iter:  13 17:02:46   -82.916533c -6.08  -3.86
iter:  14 17:02:52   -82.916479c -6.25  -3.93
iter:  15 17:02:57   -82.916479c -6.92  -4.06c
iter:  16 17:03:02   -82.916482c -6.79  -4.13c
iter:  17 17:03:08   -82.916483c -7.17  -4.31c
iter:  18 17:03:13   -82.916476c -7.18  -4.44c
iter:  19 17:03:18   -82.916478c -8.04c -4.72c

Converged after 19 iterations.

Dipole moment: (8.013552, 4.626627, -0.287501) |e|*Ang

Energy contributions relative to reference atoms: (reference = -13950194.172252)

Kinetic:       -279.594689
Potential:     +224.863882
External:        +0.000000
XC:             -31.178819
Entropy (-ST):   -0.258246
Local:           +3.122271
--------------------------
Free energy:    -83.045601
Extrapolated:   -82.916478

Showing only first 2 kpts
 Kpt  Band  Eigenvalues  Occupancy
  0   149     -0.16700    1.99980
  0   150      0.09594    1.99724
  0   151      0.29467    1.98005
  0   152      0.38144    1.95313

  1   149     -0.49068    1.99999
  1   150     -0.30690    1.99995
  1   151      0.17472    1.99395
  1   152      0.17953    1.99365


Fermi level: 0.75442

No gap

Forces in eV/Ang:
  0 Au    0.02001    0.01156   -0.40383
  1 Au    0.12262   -0.23171   -0.08839
  2 Au   -0.15019   -0.26420   -0.08469
  3 Au   -0.13936    0.22204   -0.08839
  4 Au   -0.00468   -0.00270    0.17223
  5 Au    0.14594    0.26751   -0.06768
  6 Au   -0.30389    0.00203   -0.08469
  7 Au    0.30464   -0.00737   -0.06768
  8 Au   -0.00188   -0.00109    0.17817
  9 Au   -0.15825    0.08558   -0.26236
 10 Au    0.17519    0.10115   -0.31513
 11 Au    0.00030   -0.00205   -0.04018
 12 Au    0.00617   -0.04937   -0.20580
 13 Au   -0.00163    0.00129   -0.04018
 14 Au   -0.01339   -0.00773   -0.04402
 15 Au    0.05993    0.03460   -0.19795
 16 Au   -0.00501   -0.17984   -0.26236
 17 Au   -0.03967    0.03002   -0.20580
 18 Au   -0.16071   -0.09279    0.67127
 19 Au    0.12195   -0.08033    0.72225
 20 Au    0.01074    0.13490    0.04918
 21 Au   -0.00859    0.14578    0.72225
 22 Au   -0.05389   -0.03111    0.17974
 23 Au    0.08016   -0.04270    0.16934
 24 Au    0.12220   -0.05815    0.04918
 25 Au    0.00310    0.09078    0.16934
 26 Au   -0.13340   -0.07702    0.07710
 27 O     0.00044    0.00025   -0.71775

System changes: positions 

Initializing position-dependent things.

Density initialized from wave functions
                                               
                                               
                                               
                                               
                                               
                                               
                  Au      Au     Au            
                                               
            OAu    AAu     AAu    Au           
       Au      Au     Au                       
              Au     Au      Au                
         Au     Au    AAu     Au     Au        
                                               
                 Au      Au     Au             
                                               
            Au     Au      Au                  
                                               
                                               
                                               
                                               

Positions:
   0 Au     1.475388    0.851815    6.020181    ( 0.0000,  0.0000,  0.0000)
   1 Au     4.414243    0.855166    6.008234    ( 0.0000,  0.0000,  0.0000)
   2 Au     7.394898    0.849850    6.009132    ( 0.0000,  0.0000,  0.0000)
   3 Au     2.947716    3.395264    6.008234    ( 0.0000,  0.0000,  0.0000)
   4 Au     5.905512    3.409549    5.986551    ( 0.0000,  0.0000,  0.0000)
   5 Au     8.861276    3.398382    6.006697    ( 0.0000,  0.0000,  0.0000)
   6 Au     4.433441    5.979245    6.009132    ( 0.0000,  0.0000,  0.0000)
   7 Au     7.373723    5.974899    6.006697    ( 0.0000,  0.0000,  0.0000)
   8 Au    10.338020    5.968659    6.106238    ( 0.0000,  0.0000,  0.0000)
   9 Au     0.011252    1.699623    8.477139    ( 0.0000,  0.0000,  0.0000)
  10 Au     2.940236    1.697546    8.475353    ( 0.0000,  0.0000,  0.0000)
  11 Au     5.906398    1.698502    8.393548    ( 0.0000,  0.0000,  0.0000)
  12 Au     1.478857    4.216399    8.456684    ( 0.0000,  0.0000,  0.0000)
  13 Au     4.424145    4.265840    8.393548    ( 0.0000,  0.0000,  0.0000)
  14 Au     7.393453    4.268612    8.396604    ( 0.0000,  0.0000,  0.0000)
  15 Au     2.991771    6.843059    8.459771    ( 0.0000,  0.0000,  0.0000)
  16 Au     5.907920    6.833572    8.477139    ( 0.0000,  0.0000,  0.0000)
  17 Au     8.821314    6.846167    8.456684    ( 0.0000,  0.0000,  0.0000)
  18 Au    -0.132062   -0.076246   10.933446    ( 0.0000,  0.0000,  0.0000)
  19 Au     3.088884   -0.078860   10.932989    ( 0.0000,  0.0000,  0.0000)
  20 Au     5.911018   -0.002188   10.835395    ( 0.0000,  0.0000,  0.0000)
  21 Au     1.476147    2.714482   10.932989    ( 0.0000,  0.0000,  0.0000)
  22 Au     4.462811    2.576605   10.802128    ( 0.0000,  0.0000,  0.0000)
  23 Au     7.352286    2.578265   10.804788    ( 0.0000,  0.0000,  0.0000)
  24 Au     2.953614    5.120186   10.835395    ( 0.0000,  0.0000,  0.0000)
  25 Au     5.908987    5.078134   10.804788    ( 0.0000,  0.0000,  0.0000)
  26 Au     8.865569    5.118538   10.833509    ( 0.0000,  0.0000,  0.0000)
  27 O      1.481245    0.855197   12.032281    ( 0.0000,  0.0000,  0.0000)

Unit cell:
           periodic     x           y           z      points  spacing
  1. axis:    yes    8.860755    0.000000    0.000000    45     0.1705
  2. axis:    yes    4.430378    7.673639    0.000000    45     0.1705
  3. axis:    no     0.000000    0.000000   16.823184    84     0.2003

  Lengths:   8.860755   8.860755  16.823184
  Angles:   90.000000  90.000000  60.000000

Effective grid spacing dv^(1/3) = 0.1888

     iter     time        total  log10-change:
                         energy  eigst   dens
iter:   1 17:03:26   -85.268125  -1.14
iter:   2 17:03:31   -84.132055  -2.61  -1.78
iter:   3 17:03:36   -83.270049  -2.02  -1.93
iter:   4 17:03:42   -83.236286  -3.12  -2.38
iter:   5 17:03:47   -83.229878c -2.90  -2.48
iter:   6 17:03:52   -83.225116c -4.09  -2.64
iter:   7 17:03:57   -83.207102c -3.31  -2.66
iter:   8 17:04:03   -83.204975c -4.75  -2.99
iter:   9 17:04:08   -83.202048c -4.26  -3.08
iter:  10 17:04:13   -83.202258c -4.69  -3.30
iter:  11 17:04:19   -83.201929c -5.67  -3.53
iter:  12 17:04:24   -83.201754c -5.65  -3.62
iter:  13 17:04:29   -83.201647c -5.98  -3.74
iter:  14 17:04:35   -83.201645c -5.93  -3.89
iter:  15 17:04:40   -83.201662c -6.81  -4.03c
iter:  16 17:04:45   -83.201664c -6.71  -4.09c
iter:  17 17:04:51   -83.201656c -7.13  -4.23c
iter:  18 17:04:56   -83.201648c -7.11  -4.36c
iter:  19 17:05:01   -83.201646c -7.39  -4.50c
iter:  20 17:05:07   -83.201638c -7.58c -4.65c

Converged after 20 iterations.

Dipole moment: (11.964510, 6.907713, -0.229124) |e|*Ang

Energy contributions relative to reference atoms: (reference = -13950194.172252)

Kinetic:       -297.770805
Potential:     +240.288886
External:        +0.000000
XC:             -28.680106
Entropy (-ST):   -0.257608
Local:           +3.089190
--------------------------
Free energy:    -83.330443
Extrapolated:   -83.201638

Showing only first 2 kpts
 Kpt  Band  Eigenvalues  Occupancy
  0   149     -0.16765    1.99978
  0   150      0.11344    1.99636
  0   151      0.30540    1.97541
  0   152      0.37977    1.94897

  1   149     -0.45550    1.99999
  1   150     -0.28094    1.99993
  1   151      0.18764    1.99236
  1   152      0.20217    1.99117


Fermi level: 0.74403

No gap

Forces in eV/Ang:
  0 Au    0.00013    0.00007   -0.00570
  1 Au    0.00313   -0.01443   -0.00188
  2 Au   -0.00753   -0.01494   -0.00132
  3 Au   -0.01094    0.00992   -0.00188
  4 Au   -0.00065   -0.00038    0.01057
  5 Au    0.00819    0.01280   -0.00047
  6 Au   -0.01670    0.00095   -0.00132
  7 Au    0.01518    0.00070   -0.00047
  8 Au   -0.00248   -0.00143    0.02432
  9 Au   -0.00875    0.00431   -0.00616
 10 Au    0.00813    0.00469   -0.00657
 11 Au    0.00037    0.00334   -0.00391
 12 Au    0.00003    0.01379   -0.01774
 13 Au    0.00308   -0.00134   -0.00391
 14 Au   -0.00289   -0.00167   -0.00521
 15 Au   -0.01115   -0.00644   -0.01486
 16 Au   -0.00064   -0.00973   -0.00616
 17 Au    0.01196   -0.00687   -0.01774
 18 Au   -0.03442   -0.01987    0.00540
 19 Au    0.03011   -0.01706    0.00646
 20 Au    0.00504    0.00410    0.00273
 21 Au    0.00028    0.03460    0.00646
 22 Au   -0.00024   -0.00014    0.01158
 23 Au    0.00282    0.00002    0.01142
 24 Au    0.00607    0.00231    0.00273
 25 Au    0.00142    0.00243    0.01142
 26 Au   -0.00339   -0.00196    0.00332
 27 O     0.00353    0.00204   -0.03688

System changes: positions 

Initializing position-dependent things.

Density initialized from wave functions
                                               
                                               
                                               
                                               
                                               
                                               
                  Au      Au     Au            
                                               
            OAu    AAu     AAu    Au           
       Au      Au     Au                       
              Au     Au      Au                
         Au     Au    AAu     Au     Au        
                                               
                 Au      Au     Au             
            Au                                 
                   Au     Au                   
                                               
                                               
                                               
                                               

Positions:
   0 Au     1.465168    0.845915    6.141127    ( 0.0000,  0.0000,  0.0000)
   1 Au     4.431639    0.803369    6.046277    ( 0.0000,  0.0000,  0.0000)
   2 Au     7.357219    0.786268    6.042465    ( 0.0000,  0.0000,  0.0000)
   3 Au     2.911558    3.436228    6.046277    ( 0.0000,  0.0000,  0.0000)
   4 Au     5.894733    3.403326    5.935807    ( 0.0000,  0.0000,  0.0000)
   5 Au     8.880539    3.440940    6.030788    ( 0.0000,  0.0000,  0.0000)
   6 Au     4.359537    5.978404    6.042465    ( 0.0000,  0.0000,  0.0000)
   7 Au     7.420211    5.970303    6.030788    ( 0.0000,  0.0000,  0.0000)
   8 Au    10.332344    5.965382    6.082084    ( 0.0000,  0.0000,  0.0000)
   9 Au    -0.026794    1.715896    8.536383    ( 0.0000,  0.0000,  0.0000)
  10 Au     2.967924    1.713532    8.528220    ( 0.0000,  0.0000,  0.0000)
  11 Au     5.902654    1.717130    8.369959    ( 0.0000,  0.0000,  0.0000)
  12 Au     1.485802    4.215492    8.396566    ( 0.0000,  0.0000,  0.0000)
  13 Au     4.438406    4.253284    8.369959    ( 0.0000,  0.0000,  0.0000)
  14 Au     7.379979    4.260833    8.368667    ( 0.0000,  0.0000,  0.0000)
  15 Au     2.990663    6.842419    8.407321    ( 0.0000,  0.0000,  0.0000)
  16 Au     5.902990    6.792486    8.536383    ( 0.0000,  0.0000,  0.0000)
  17 Au     8.824002    6.852635    8.396566    ( 0.0000,  0.0000,  0.0000)
  18 Au    -0.151127   -0.087253   10.843017    ( 0.0000,  0.0000,  0.0000)
  19 Au     3.136859   -0.102784   10.821930    ( 0.0000,  0.0000,  0.0000)
  20 Au     5.922350    0.059655   10.872346    ( 0.0000,  0.0000,  0.0000)
  21 Au     1.479416    2.767991   10.821930    ( 0.0000,  0.0000,  0.0000)
  22 Au     4.462563    2.576462   10.814400    ( 0.0000,  0.0000,  0.0000)
  23 Au     7.363250    2.581505   10.817849    ( 0.0000,  0.0000,  0.0000)
  24 Au     3.012838    5.099078   10.872346    ( 0.0000,  0.0000,  0.0000)
  25 Au     5.917274    5.086009   10.817849    ( 0.0000,  0.0000,  0.0000)
  26 Au     8.828806    5.097314   10.865640    ( 0.0000,  0.0000,  0.0000)
  27 O      1.493231    0.862117   11.929574    ( 0.0000,  0.0000,  0.0000)

Unit cell:
           periodic     x           y           z      points  spacing
  1. axis:    yes    8.860755    0.000000    0.000000    45     0.1705
  2. axis:    yes    4.430378    7.673639    0.000000    45     0.1705
  3. axis:    no     0.000000    0.000000   16.823184    84     0.2003

  Lengths:   8.860755   8.860755  16.823184
  Angles:   90.000000  90.000000  60.000000

Effective grid spacing dv^(1/3) = 0.1888

     iter     time        total  log10-change:
                         energy  eigst   dens
iter:   1 17:05:14   -84.001589  -1.28
iter:   2 17:05:19   -83.515185  -2.76  -1.96
iter:   3 17:05:25   -82.944352  -2.01  -2.05
iter:   4 17:05:30   -82.939977  -3.28  -2.50
iter:   5 17:05:35   -82.917313c -3.67  -2.54
iter:   6 17:05:40   -82.920857c -3.65  -2.69
iter:   7 17:05:46   -82.911712c -3.93  -2.82
iter:   8 17:05:51   -82.912143c -4.49  -3.06
iter:   9 17:05:56   -82.910485c -4.85  -3.19
iter:  10 17:06:02   -82.910491c -5.06  -3.41
iter:  11 17:06:07   -82.910150c -5.36  -3.61
iter:  12 17:06:12   -82.910162c -5.71  -3.69
iter:  13 17:06:18   -82.910195c -6.20  -3.81
iter:  14 17:06:23   -82.910194c -6.23  -3.89
iter:  15 17:06:28   -82.910195c -6.69  -4.04c
iter:  16 17:06:34   -82.910178c -7.13  -4.12c
iter:  17 17:06:39   -82.910160c -6.48  -4.19c
iter:  18 17:06:44   -82.910160c -7.33  -4.57c
iter:  19 17:06:49   -82.910162c -8.00c -4.71c

Converged after 19 iterations.

Dipole moment: (6.028367, 3.480479, -0.265939) |e|*Ang

Energy contributions relative to reference atoms: (reference = -13950194.172252)

Kinetic:       -281.013113
Potential:     +225.881095
External:        +0.000000
XC:             -30.780212
Entropy (-ST):   -0.261085
Local:           +3.132611
--------------------------
Free energy:    -83.040704
Extrapolated:   -82.910162

Showing only first 2 kpts
 Kpt  Band  Eigenvalues  Occupancy
  0   149     -0.15652    1.99976
  0   150      0.11711    1.99625
  0   151      0.30786    1.97498
  0   152      0.37540    1.95143

  1   149     -0.43916    1.99999
  1   150     -0.27209    1.99992
  1   151      0.18091    1.99291
  1   152      0.19343    1.99196


Fermi level: 0.74472

No gap

Forces in eV/Ang:
  0 Au   -0.00578   -0.00334   -0.04988
  1 Au   -0.18703    0.36678   -0.23824
  2 Au    0.18247    0.43655   -0.20738
  3 Au    0.22412   -0.34536   -0.23824
  4 Au    0.01659    0.00958    0.08984
  5 Au   -0.21540   -0.33213   -0.15576
  6 Au    0.46929   -0.06025   -0.20738
  7 Au   -0.39533   -0.02047   -0.15576
  8 Au   -0.05551   -0.03205   -0.16715
  9 Au    0.11720   -0.04596   -0.35442
 10 Au   -0.10611   -0.06126   -0.29827
 11 Au    0.02328   -0.00418    0.15986
 12 Au   -0.06490    0.26056    0.40459
 13 Au    0.00802    0.02225    0.15986
 14 Au    0.01961    0.01132    0.15074
 15 Au   -0.20250   -0.11691    0.48608
 16 Au    0.01880    0.12448   -0.35442
 17 Au    0.19320   -0.18649    0.40459
 18 Au    0.26035    0.15031    0.37186
 19 Au   -0.39863    0.26140    0.44757
 20 Au    0.02894   -0.30283   -0.22129
 21 Au    0.02707   -0.47592    0.44757
 22 Au    0.13084    0.07554    0.07033
 23 Au   -0.14509    0.08698    0.08660
 24 Au   -0.24779    0.17648   -0.22129
 25 Au    0.00278   -0.16914    0.08660
 26 Au    0.24648    0.14230   -0.22391
 27 O     0.05437    0.03139   -0.22853

System changes: positions 

Initializing position-dependent things.

Density initialized from wave functions
                                               
                                               
                                               
                                               
                                               
                                               
                  Au      Au     Au            
                                               
            OAu    AAu     AAu    Au           
       Au      Au     Au                       
              Au     Au      Au                
         Au     Au    AAu     Au     Au        
                                               
                 Au      Au     Au             
                                               
            Au     Au      Au                  
                                               
                                               
                                               
                                               

Positions:
   0 Au     1.473934    0.850976    6.027619    ( 0.0000,  0.0000,  0.0000)
   1 Au     4.419814    0.843440    6.007807    ( 0.0000,  0.0000,  0.0000)
   2 Au     7.385989    0.835283    6.008185    ( 0.0000,  0.0000,  0.0000)
   3 Au     2.940347    3.405951    6.007807    ( 0.0000,  0.0000,  0.0000)
   4 Au     5.903544    3.408413    5.984915    ( 0.0000,  0.0000,  0.0000)
   5 Au     8.866659    3.410348    6.005073    ( 0.0000,  0.0000,  0.0000)
   6 Au     4.416371    5.978812    6.008185    ( 0.0000,  0.0000,  0.0000)
   7 Au     7.386778    5.973578    6.005073    ( 0.0000,  0.0000,  0.0000)
   8 Au    10.337267    5.968224    6.094976    ( 0.0000,  0.0000,  0.0000)
   9 Au     0.007543    1.701310    8.482803    ( 0.0000,  0.0000,  0.0000)
  10 Au     2.943112    1.699207    8.479719    ( 0.0000,  0.0000,  0.0000)
  11 Au     5.905702    1.701818    8.390111    ( 0.0000,  0.0000,  0.0000)
  12 Au     1.479945    4.207241    8.452899    ( 0.0000,  0.0000,  0.0000)
  13 Au     4.426668    4.263579    8.390111    ( 0.0000,  0.0000,  0.0000)
  14 Au     7.390299    4.266791    8.392631    ( 0.0000,  0.0000,  0.0000)
  15 Au     2.999363    6.847442    8.456401    ( 0.0000,  0.0000,  0.0000)
  16 Au     5.907527    6.829516    8.482803    ( 0.0000,  0.0000,  0.0000)
  17 Au     8.813927    6.851689    8.452899    ( 0.0000,  0.0000,  0.0000)
  18 Au    -0.140709   -0.081239   10.932202    ( 0.0000,  0.0000,  0.0000)
  19 Au     3.102218   -0.085761   10.928778    ( 0.0000,  0.0000,  0.0000)
  20 Au     5.912119    0.011406   10.839451    ( 0.0000,  0.0000,  0.0000)
  21 Au     1.476838    2.729480   10.928778    ( 0.0000,  0.0000,  0.0000)
  22 Au     4.462343    2.576335   10.809764    ( 0.0000,  0.0000,  0.0000)
  23 Au     7.355075    2.578490   10.812456    ( 0.0000,  0.0000,  0.0000)
  24 Au     2.965938    5.114342   10.839451    ( 0.0000,  0.0000,  0.0000)
  25 Au     5.910576    5.080437   10.812456    ( 0.0000,  0.0000,  0.0000)
  26 Au     8.855831    5.112917   10.837687    ( 0.0000,  0.0000,  0.0000)
  27 O      1.481951    0.855605   12.009459    ( 0.0000,  0.0000,  0.0000)

Unit cell:
           periodic     x           y           z      points  spacing
  1. axis:    yes    8.860755    0.000000    0.000000    45     0.1705
  2. axis:    yes    4.430378    7.673639    0.000000    45     0.1705
  3. axis:    no     0.000000    0.000000   16.823184    84     0.2003

  Lengths:   8.860755   8.860755  16.823184
[...]
  23 Au     7.354333    2.579538   10.810969    ( 0.0000,  0.0000,  0.0000)
  24 Au     2.954747    5.121336   10.831538    ( 0.0000,  0.0000,  0.0000)
  25 Au     5.911112    5.079271   10.810969    ( 0.0000,  0.0000,  0.0000)
  26 Au     8.867323    5.119551   10.829252    ( 0.0000,  0.0000,  0.0000)
  27 O      1.483813    0.856680   12.022471    ( 0.0000,  0.0000,  0.0000)

Unit cell:
           periodic     x           y           z      points  spacing
  1. axis:    yes    8.860755    0.000000    0.000000    45     0.1705
  2. axis:    yes    4.430378    7.673639    0.000000    45     0.1705
  3. axis:    no     0.000000    0.000000   16.823184    84     0.2003

  Lengths:   8.860755   8.860755  16.823184
  Angles:   90.000000  90.000000  60.000000

Effective grid spacing dv^(1/3) = 0.1888

     iter     time        total  log10-change:
                         energy  eigst   dens
iter:   1 17:10:53   -83.204048  -4.29
iter:   2 17:10:59   -83.202688  -5.49  -3.37
iter:   3 17:11:04   -83.202436c -5.81  -3.59
iter:   4 17:11:09   -83.202393c -5.66  -3.77
iter:   5 17:11:15   -83.202320c -6.06  -4.05c
iter:   6 17:11:20   -83.202314c -7.21  -4.23c
iter:   7 17:11:25   -83.202330c -6.69  -4.33c
iter:   8 17:11:30   -83.202330c -7.95c -4.61c

Converged after 8 iterations.

Dipole moment: (12.035094, 6.948465, -0.227583) |e|*Ang

Energy contributions relative to reference atoms: (reference = -13950194.172252)

Kinetic:       -298.057882
Potential:     +240.520937
External:        +0.000000
XC:             -28.625189
Entropy (-ST):   -0.257700
Local:           +3.088654
--------------------------
Free energy:    -83.331180
Extrapolated:   -83.202330

Showing only first 2 kpts
 Kpt  Band  Eigenvalues  Occupancy
  0   149     -0.16676    1.99978
  0   150      0.11554    1.99624
  0   151      0.30643    1.97489
  0   152      0.37910    1.94875

  1   149     -0.45114    1.99999
  1   150     -0.28070    1.99993
  1   151      0.19060    1.99205
  1   152      0.20572    1.99075


Fermi level: 0.74293

No gap

Forces in eV/Ang:
  0 Au   -0.00061   -0.00035   -0.00025
  1 Au   -0.00009    0.00130    0.00316
  2 Au    0.00036    0.00201    0.00336
  3 Au    0.00108   -0.00073    0.00316
  4 Au    0.00050    0.00029   -0.00547
  5 Au   -0.00266   -0.00032    0.00168
  6 Au    0.00192   -0.00069    0.00336
  7 Au   -0.00161   -0.00214    0.00168
  8 Au   -0.00104   -0.00060    0.00579
  9 Au    0.00134   -0.00326    0.01161
 10 Au   -0.00210   -0.00122    0.01013
 11 Au    0.00064   -0.00267   -0.00241
 12 Au    0.00118   -0.00113    0.00356
 13 Au   -0.00199    0.00189   -0.00241
 14 Au    0.00116    0.00067   -0.00610
 15 Au   -0.00016   -0.00009   -0.00347
 16 Au   -0.00215    0.00278    0.01161
 17 Au   -0.00038    0.00159    0.00356
 18 Au    0.02331    0.01346    0.00596
 19 Au    0.01236   -0.01498   -0.01592
 20 Au   -0.00735    0.00558    0.00461
 21 Au   -0.00680    0.01819   -0.01592
 22 Au    0.00005    0.00003   -0.01020
 23 Au    0.00542   -0.00713   -0.00539
 24 Au    0.00116   -0.00916    0.00461
 25 Au   -0.00347    0.00826   -0.00539
 26 Au   -0.00109   -0.00063    0.00559
 27 O    -0.02306   -0.01331    0.00421

System changes: positions 

Initializing position-dependent things.

Density initialized from wave functions
                                               
                                               
                                               
                                               
                                               
                                               
                  Au      Au     Au            
                                               
            OAu    AAu     AAu    Au           
       Au      Au     Au                       
              Au     Au      Au                
         Au     Au    AAu     Au     Au        
                                               
                 Au      Au     Au             
                                               
            Au     Au      Au                  
                                               
                                               
                                               
                                               

Positions:
   0 Au     1.472635    0.850226    6.021954    ( 0.0000,  0.0000,  0.0000)
   1 Au     4.412571    0.853059    6.006623    ( 0.0000,  0.0000,  0.0000)
   2 Au     7.391146    0.847586    6.007926    ( 0.0000,  0.0000,  0.0000)
   3 Au     2.945056    3.394869    6.006623    ( 0.0000,  0.0000,  0.0000)
   4 Au     5.903222    3.408227    5.990723    ( 0.0000,  0.0000,  0.0000)
   5 Au     8.858964    3.398270    6.005630    ( 0.0000,  0.0000,  0.0000)
   6 Au     4.429604    5.977127    6.007926    ( 0.0000,  0.0000,  0.0000)
   7 Au     7.372470    5.972953    6.005630    ( 0.0000,  0.0000,  0.0000)
   8 Au    10.335339    5.967111    6.105656    ( 0.0000,  0.0000,  0.0000)
   9 Au     0.010636    1.700332    8.478018    ( 0.0000,  0.0000,  0.0000)
  10 Au     2.941009    1.697992    8.476699    ( 0.0000,  0.0000,  0.0000)
  11 Au     5.905499    1.699999    8.395488    ( 0.0000,  0.0000,  0.0000)
  12 Au     1.478706    4.217566    8.449858    ( 0.0000,  0.0000,  0.0000)
  13 Au     4.424992    4.264312    8.395488    ( 0.0000,  0.0000,  0.0000)
  14 Au     7.392174    4.267873    8.398109    ( 0.0000,  0.0000,  0.0000)
  15 Au     2.990042    6.842061    8.452347    ( 0.0000,  0.0000,  0.0000)
  16 Au     5.908227    6.832684    8.478018    ( 0.0000,  0.0000,  0.0000)
  17 Au     8.822250    6.845453    8.449858    ( 0.0000,  0.0000,  0.0000)
  18 Au    -0.135482   -0.078221   10.933051    ( 0.0000,  0.0000,  0.0000)
  19 Au     3.096130   -0.082193   10.931200    ( 0.0000,  0.0000,  0.0000)
  20 Au     5.911253   -0.001531   10.831983    ( 0.0000,  0.0000,  0.0000)
  21 Au     1.476884    2.722424   10.931200    ( 0.0000,  0.0000,  0.0000)
  22 Au     4.464568    2.577620   10.806639    ( 0.0000,  0.0000,  0.0000)
  23 Au     7.355417    2.579578   10.809755    ( 0.0000,  0.0000,  0.0000)
  24 Au     2.954301    5.120061   10.831983    ( 0.0000,  0.0000,  0.0000)
  25 Au     5.911689    5.080189   10.809755    ( 0.0000,  0.0000,  0.0000)
  26 Au     8.867611    5.119718   10.830157    ( 0.0000,  0.0000,  0.0000)
  27 O      1.485629    0.857728   12.020001    ( 0.0000,  0.0000,  0.0000)

Unit cell:
           periodic     x           y           z      points  spacing
  1. axis:    yes    8.860755    0.000000    0.000000    45     0.1705
  2. axis:    yes    4.430378    7.673639    0.000000    45     0.1705
  3. axis:    no     0.000000    0.000000   16.823184    84     0.2003

  Lengths:   8.860755   8.860755  16.823184
  Angles:   90.000000  90.000000  60.000000

Effective grid spacing dv^(1/3) = 0.1888

     iter     time        total  log10-change:
                         energy  eigst   dens
iter:   1 17:11:38   -83.204421  -4.16
iter:   2 17:11:43   -83.203265  -5.57  -3.29
iter:   3 17:11:49   -83.202548c -5.31  -3.46
iter:   4 17:11:54   -83.202325c -5.38  -3.75
iter:   5 17:11:59   -83.202365c -6.06  -4.02c
iter:   6 17:12:04   -83.202355c -7.10  -4.22c
iter:   7 17:12:10   -83.202324c -7.01  -4.28c
iter:   8 17:12:15   -83.202321c -7.77c -4.50c

Converged after 8 iterations.

Dipole moment: (12.092851, 6.981811, -0.227701) |e|*Ang

Energy contributions relative to reference atoms: (reference = -13950194.172252)

Kinetic:       -297.452281
Potential:     +240.007545
External:        +0.000000
XC:             -28.717061
Entropy (-ST):   -0.257701
Local:           +3.088326
--------------------------
Free energy:    -83.331172
Extrapolated:   -83.202321

Showing only first 2 kpts
 Kpt  Band  Eigenvalues  Occupancy
  0   149     -0.16652    1.99978
  0   150      0.11593    1.99626
  0   151      0.30795    1.97475
  0   152      0.37935    1.94911

  1   149     -0.44998    1.99999
  1   150     -0.28010    1.99993
  1   151      0.19178    1.99203
  1   152      0.20554    1.99086


Fermi level: 0.74390

No gap

Forces in eV/Ang:
  0 Au    0.00339    0.00196   -0.00386
  1 Au   -0.00262   -0.00450   -0.00211
  2 Au   -0.00154   -0.00249   -0.00027
  3 Au   -0.00521   -0.00002   -0.00211
  4 Au   -0.00080   -0.00046   -0.00141
  5 Au    0.00503    0.00320   -0.00109
  6 Au   -0.00293   -0.00009   -0.00027
  7 Au    0.00529    0.00276   -0.00109
  8 Au   -0.00334   -0.00193   -0.00630
  9 Au   -0.01341   -0.00253   -0.01030
 10 Au    0.00540    0.00312   -0.01266
 11 Au    0.00795   -0.00484   -0.00336
 12 Au   -0.00061    0.00820   -0.00299
 13 Au   -0.00021    0.00931   -0.00336
 14 Au    0.00018    0.00010   -0.00527
 15 Au    0.00052    0.00030    0.01822
 16 Au   -0.00889   -0.01035   -0.01030
 17 Au    0.00680   -0.00463   -0.00299
 18 Au   -0.01480   -0.00854    0.00274
 19 Au   -0.00738    0.01082    0.01233
 20 Au    0.02795    0.00203   -0.00207
 21 Au    0.00568   -0.01180    0.01233
 22 Au    0.00295    0.00170    0.00510
 23 Au   -0.00872   -0.00468    0.00001
 24 Au    0.01574    0.02319   -0.00207
 25 Au   -0.00841   -0.00521    0.00001
 26 Au   -0.00234   -0.00135   -0.00105
 27 O    -0.00044   -0.00025   -0.00094

System changes: positions 

Initializing position-dependent things.

Density initialized from wave functions
                                               
                                               
                                               
                                               
                                               
                                               
                  Au      Au     Au            
                                               
            OAu    AAu     AAu    Au           
       Au      Au     Au                       
              Au     Au      Au                
         Au     Au    AAu     Au     Au        
                                               
                 Au      Au     Au             
                                               
            Au     Au      Au                  
                                               
                                               
                                               
                                               

Positions:
   0 Au     1.473799    0.850899    6.020617    ( 0.0000,  0.0000,  0.0000)
   1 Au     4.413389    0.852662    6.006233    ( 0.0000,  0.0000,  0.0000)
   2 Au     7.391741    0.847273    6.007591    ( 0.0000,  0.0000,  0.0000)
   3 Au     2.945122    3.395776    6.006233    ( 0.0000,  0.0000,  0.0000)
   4 Au     5.903974    3.408661    5.989819    ( 0.0000,  0.0000,  0.0000)
   5 Au     8.860553    3.399548    6.005269    ( 0.0000,  0.0000,  0.0000)
   6 Au     4.429630    5.977799    6.007591    ( 0.0000,  0.0000,  0.0000)
   7 Au     7.374372    5.973690    6.005269    ( 0.0000,  0.0000,  0.0000)
   8 Au    10.335914    5.967443    6.106140    ( 0.0000,  0.0000,  0.0000)
   9 Au     0.009754    1.700085    8.476898    ( 0.0000,  0.0000,  0.0000)
  10 Au     2.941368    1.698200    8.475229    ( 0.0000,  0.0000,  0.0000)
  11 Au     5.906292    1.699470    8.394475    ( 0.0000,  0.0000,  0.0000)
  12 Au     1.478761    4.218291    8.451914    ( 0.0000,  0.0000,  0.0000)
  13 Au     4.424930    4.265264    8.394475    ( 0.0000,  0.0000,  0.0000)
  14 Au     7.392334    4.267966    8.396936    ( 0.0000,  0.0000,  0.0000)
  15 Au     2.990146    6.842121    8.455701    ( 0.0000,  0.0000,  0.0000)
  16 Au     5.907572    6.832044    8.476898    ( 0.0000,  0.0000,  0.0000)
  17 Au     8.822906    6.845138    8.451914    ( 0.0000,  0.0000,  0.0000)
  18 Au    -0.136353   -0.078723   10.935121    ( 0.0000,  0.0000,  0.0000)
  19 Au     3.095224   -0.081676   10.933666    ( 0.0000,  0.0000,  0.0000)
  20 Au     5.912713   -0.000963   10.833075    ( 0.0000,  0.0000,  0.0000)
  21 Au     1.476879    2.721380   10.933666    ( 0.0000,  0.0000,  0.0000)
  22 Au     4.463982    2.577281   10.806389    ( 0.0000,  0.0000,  0.0000)
  23 Au     7.354211    2.578668   10.809200    ( 0.0000,  0.0000,  0.0000)
  24 Au     2.955523    5.121041   10.833075    ( 0.0000,  0.0000,  0.0000)
  25 Au     5.910297    5.079599   10.809200    ( 0.0000,  0.0000,  0.0000)
  26 Au     8.866318    5.118971   10.831302    ( 0.0000,  0.0000,  0.0000)
  27 O      1.483138    0.856290   12.022219    ( 0.0000,  0.0000,  0.0000)

Unit cell:
           periodic     x           y           z      points  spacing
  1. axis:    yes    8.860755    0.000000    0.000000    45     0.1705
  2. axis:    yes    4.430378    7.673639    0.000000    45     0.1705
  3. axis:    no     0.000000    0.000000   16.823184    84     0.2003

  Lengths:   8.860755   8.860755  16.823184
  Angles:   90.000000  90.000000  60.000000

Effective grid spacing dv^(1/3) = 0.1888

     iter     time        total  log10-change:
                         energy  eigst   dens
iter:   1 17:12:22   -83.203561  -4.37
iter:   2 17:12:28   -83.202991  -5.87  -3.47
iter:   3 17:12:33   -83.202453c -4.96  -3.60
iter:   4 17:12:38   -83.202437c -6.61  -4.11c
iter:   5 17:12:44   -83.202427c -6.89  -4.15c
iter:   6 17:12:49   -83.202428c -7.26  -4.35c
iter:   7 17:12:54   -83.202430c -7.20  -4.52c
iter:   8 17:13:00   -83.202426c -8.35c -4.88c

Converged after 8 iterations.

Dipole moment: (12.016522, 6.937742, -0.227867) |e|*Ang

Energy contributions relative to reference atoms: (reference = -13950194.172252)

Kinetic:       -297.882625
Potential:     +240.373977
External:        +0.000000
XC:             -28.654928
Entropy (-ST):   -0.257762
Local:           +3.090031
--------------------------
Free energy:    -83.331307
Extrapolated:   -83.202426

Showing only first 2 kpts
 Kpt  Band  Eigenvalues  Occupancy
  0   149     -0.16703    1.99978
  0   150      0.11574    1.99624
  0   151      0.30741    1.97472
  0   152      0.37918    1.94886

  1   149     -0.45093    1.99999
  1   150     -0.28011    1.99993
  1   151      0.19050    1.99208
  1   152      0.20543    1.99081


Fermi level: 0.74323

No gap

Forces in eV/Ang:
  0 Au   -0.00149   -0.00086    0.00170
  1 Au    0.00009    0.00016    0.00179
  2 Au   -0.00006   -0.00177    0.00104
  3 Au    0.00019    0.00000    0.00179
  4 Au   -0.00139   -0.00080   -0.00089
  5 Au   -0.00032   -0.00232    0.00030
  6 Au   -0.00157    0.00084    0.00104
  7 Au   -0.00217    0.00088    0.00030
  8 Au    0.00227    0.00131    0.00091
  9 Au    0.00257    0.00029    0.00006
 10 Au   -0.00015   -0.00009    0.00203
 11 Au   -0.00262    0.00032   -0.00146
 12 Au    0.00078   -0.00168    0.00205
 13 Au   -0.00103   -0.00243   -0.00146
 14 Au   -0.00047   -0.00027    0.00243
 15 Au   -0.00014   -0.00008   -0.00532
 16 Au    0.00154    0.00208    0.00006
 17 Au   -0.00107    0.00152    0.00205
 18 Au    0.00236    0.00136   -0.00264
 19 Au    0.00066    0.00273   -0.00322
 20 Au   -0.00335   -0.00088   -0.00137
 21 Au    0.00269   -0.00080   -0.00322
 22 Au   -0.00097   -0.00056   -0.00363
 23 Au   -0.00056    0.00375   -0.00303
 24 Au   -0.00244   -0.00246   -0.00137
 25 Au    0.00297   -0.00236   -0.00303
 26 Au    0.00112    0.00065   -0.00354
 27 O     0.00466    0.00269    0.00231

Timing:                                      incl.     excl.
-------------------------------------------------------------------
Density initialized from wave functions:     7.329     6.958   0.5% |
 Symmetrize density:                         0.372     0.372   0.0% |
Forces:                                     23.078    23.078   1.6% ||
Hamiltonian:                                 5.625     0.066   0.0% |
 Atomic:                                     2.538     1.260   0.1% |
  XC Correction:                             1.277     1.277   0.1% |
 Calculate atomic Hamiltonians:              1.497     1.497   0.1% |
 Communicate:                                0.073     0.073   0.0% |
 Initialize Hamiltonian:                     0.000     0.000   0.0% |
 Poisson:                                    0.020     0.020   0.0% |
 XC 3D grid:                                 1.432     1.432   0.1% |
LCAO initialization:                         7.507     0.145   0.0% |
 LCAO eigensolver:                           0.434     0.001   0.0% |
  Calculate projections:                     0.003     0.003   0.0% |
  DenseAtomicCorrection:                     0.004     0.004   0.0% |
  Distribute overlap matrix:                 0.063     0.063   0.0% |
  Orbital Layouts:                           0.097     0.097   0.0% |
  Potential matrix:                          0.249     0.249   0.0% |
  Sum over cells:                            0.017     0.017   0.0% |
 LCAO to grid:                               6.698     6.698   0.5% |
 Set positions (LCAO WFS):                   0.230     0.076   0.0% |
  Basic WFS set positions:                   0.002     0.002   0.0% |
  Basis functions set positions:             0.000     0.000   0.0% |
  P tci:                                     0.095     0.095   0.0% |
  ST tci:                                    0.031     0.031   0.0% |
  mktci:                                     0.027     0.027   0.0% |
PWDescriptor:                                0.034     0.034   0.0% |
Redistribute:                                0.025     0.025   0.0% |
SCF-cycle:                                1389.205     0.474   0.0% |
 Davidson:                                1201.247   216.179  15.0% |-----|
  Apply H:                                 141.271   137.627   9.5% |---|
   HMM T:                                    3.644     3.644   0.3% |
  Subspace diag:                           208.291     0.108   0.0% |
   calc_h_matrix:                          162.062    21.097   1.5% ||
    Apply H:                               140.965   137.349   9.5% |---|
     HMM T:                                  3.616     3.616   0.3% |
   diagonalize:                             10.978    10.978   0.8% |
   rotate_psi:                              35.144    35.144   2.4% ||
  calc. matrices:                          410.487   128.971   8.9% |---|
   Apply H:                                281.516   274.448  19.0% |-------|
    HMM T:                                   7.067     7.067   0.5% |
  diagonalize:                             156.825   156.825  10.9% |---|
  rotate_psi:                               68.195    68.195   4.7% |-|
 Density:                                  105.649     0.007   0.0% |
  Atomic density matrices:                   0.805     0.805   0.1% |
  Mix:                                      27.602    27.602   1.9% ||
  Multipole moments:                         0.050     0.050   0.0% |
  Pseudo density:                           77.184    71.810   5.0% |-|
   Symmetrize density:                       5.375     5.375   0.4% |
 Hamiltonian:                               76.356     0.879   0.1% |
  Atomic:                                   34.494    17.070   1.2% |
   XC Correction:                           17.424    17.424   1.2% |
  Calculate atomic Hamiltonians:            20.284    20.284   1.4% ||
  Communicate:                               1.101     1.101   0.1% |
  Poisson:                                   0.226     0.226   0.0% |
  XC 3D grid:                               19.372    19.372   1.3% ||
 Orthonormalize:                             5.478     0.010   0.0% |
  calc_s_matrix:                             0.691     0.691   0.0% |
  inverse-cholesky:                          0.297     0.297   0.0% |
  projections:                               3.222     3.222   0.2% |
  rotate_psi_s:                              1.258     1.258   0.1% |
Set symmetry:                                0.002     0.002   0.0% |
Other:                                       9.185     9.185   0.6% |
-------------------------------------------------------------------
Total:                                              1441.989 100.0%

Memory usage: 1.08 GiB
Date: Thu Mar  9 17:13:02 2023
