
  ___ ___ ___ _ _ _  
 |   |   |_  | | | | 
 | | | | | . | | | | 
 |__ |  _|___|_____|  22.8.0
 |___|_|             

User:   gotols@vera07-3
Date:   Thu Mar  2 12:24:55 2023
Arch:   x86_64
Pid:    1667366
CWD:    /cephyr/users/gotols/Vera/TIF320-Computational-materials-and-molecular-physics-Assignments
Python: 3.10.4
gpaw:   /apps/Arch/software/GPAW/22.8.0-foss-2022a/lib/python3.10/site-packages/gpaw
_gpaw:  /apps/Arch/software/GPAW/22.8.0-foss-2022a/lib/python3.10/site-packages/
        _gpaw.cpython-310-x86_64-linux-gnu.so
ase:    /apps/Arch/software/ASE/3.22.1-foss-2022a/lib/python3.10/site-packages/ase (version 3.22.1)
numpy:  /apps/Arch/software/SciPy-bundle/2022.05-foss-2022a/lib/python3.10/site-packages/numpy (version 1.22.3)
scipy:  /apps/Arch/software/SciPy-bundle/2022.05-foss-2022a/lib/python3.10/site-packages/scipy (version 1.8.1)
libxc:  5.2.3
units:  Angstrom and eV
cores: 16
OpenMP: False
OMP_NUM_THREADS: 1

Input parameters:
  kpts: [4 4 1]
  mode: {ecut: 450.00000000000006,
         name: pw}
  xc: PBE

System changes: positions, numbers, cell, pbc, initial_charges, initial_magmoms 

Initialize ...

species:
  Pt:
    name: Platinum
    id: 5ed695806aff0c961dba1a84acd7f4b2
    Z: 78.0
    valence: 16
    core: 62
    charge: 0.0
    file: /apps/Common/software/GPAW-setups/0.9.20000/Pt.PBE.gz
    compensation charges: {type: gauss,
                           rc: 0.41,
                           lmax: 2}
    cutoffs: {filter: 2.26,
              core: 2.26}
    valence states:
      #              energy  rcut
      - 6s(1.00)    -5.628   1.307
      - 5p(6.00)   -56.051   1.371
      - 6p(0.00)    -0.845   1.371
      - 5d(9.00)    -6.153   1.307
      -  s          21.583   1.307
      -  d          21.058   1.307
  
    # Using partial waves for Pt as LCAO basis

  O:
    name: Oxygen
    id: 32ecd46bf208036f09c70b0ec9a88b78
    Z: 8.0
    valence: 6
    core: 2
    charge: 0.0
    file: /apps/Common/software/GPAW-setups/0.9.20000/O.PBE.gz
    compensation charges: {type: gauss,
                           rc: 0.21,
                           lmax: 2}
    cutoffs: {filter: 1.17,
              core: 0.83}
    valence states:
      #              energy  rcut
      - 2s(2.00)   -23.961   0.688
      - 2p(4.00)    -9.029   0.598
      -  s           3.251   0.688
      -  p          18.182   0.598
      -  d           0.000   0.619
  
    # Using partial waves for O as LCAO basis

  C:
    name: Carbon
    id: 4aa54d4b901d75f77cc0ea3eec22967b
    Z: 6.0
    valence: 4
    core: 2
    charge: 0.0
    file: /apps/Common/software/GPAW-setups/0.9.20000/C.PBE.gz
    compensation charges: {type: gauss,
                           rc: 0.20,
                           lmax: 2}
    cutoffs: {filter: 1.14,
              core: 1.14}
    valence states:
      #              energy  rcut
      - 2s(2.00)   -13.751   0.635
      - 2p(2.00)    -5.284   0.635
      -  s          13.461   0.635
      -  p          21.927   0.635
      -  d           0.000   0.635
  
    # Using partial waves for C as LCAO basis

Reference energy: -13513203.275138  # eV

Spin-paired calculation

Convergence criteria:
 Maximum [total energy] change in last 3 cyles: 0.0005 eV / electron
 Maximum integral of absolute [dens]ity change: 0.0001 electrons / valence electron
 Maximum integral of absolute [eigenst]ate change: 4e-08 eV^2 / valence electron
 Maximum number of scf [iter]ations: 333
 (Square brackets indicate name in SCF output, whereas a 'c' in
 the SCF output indicates the quantity has converged.)

Symmetries present (total): 1

  ( 1  0  0)
  ( 0  1  0)
  ( 0  0  1)

16 k-points: 4 x 4 x 1 Monkhorst-Pack grid
8 k-points in the irreducible part of the Brillouin zone
       k-points in crystal coordinates                weights
   0:     0.12500000   -0.37500000    0.00000000          2/16
   1:     0.12500000   -0.12500000    0.00000000          2/16
   2:     0.12500000    0.12500000    0.00000000          2/16
   3:     0.12500000    0.37500000    0.00000000          2/16
   4:     0.37500000   -0.37500000    0.00000000          2/16
   5:     0.37500000   -0.12500000    0.00000000          2/16
   6:     0.37500000    0.12500000    0.00000000          2/16
   7:     0.37500000    0.37500000    0.00000000          2/16

Wave functions: Plane wave expansion
  Cutoff energy: 450.000 eV
  Number of coefficients (min, max): 22059, 22107
  Pulay-stress correction: 0.000000 eV/Ang^3 (de/decut=0.000000)
  Using FFTW library
  ScaLapack parameters: grid=1x1, blocksize=None
  Wavefunction extrapolation:
    Improved wavefunction reuse through dual PAW basis 

Occupation numbers: Fermi-Dirac:
  width: 0.1000  # eV
 

Eigensolver
   Davidson(niter=2) 

Densities:
  Coarse grid: 42*42*84 grid
  Fine grid: 84*84*168 grid
  Total Charge: 0.000000 

Density mixing:
  Method: separate
  Backend: pulay
  Linear mixing parameter: 0.05
  old densities: 5
  Damping of long wavelength oscillations: 50 

Hamiltonian:
  XC and Coulomb potentials evaluated on a 84*84*168 grid
  Using the PBE Exchange-Correlation functional
  External potential:
    NoExternalPotential
 

XC parameters: PBE with 2 nearest neighbor stencil

Memory estimate:
  Process memory now: 783.61 MiB
  Calculator: 252.06 MiB
    Density: 37.97 MiB
      Arrays: 14.70 MiB
      Localized functions: 17.62 MiB
      Mixer: 5.65 MiB
    Hamiltonian: 10.09 MiB
      Arrays: 9.61 MiB
      XC: 0.00 MiB
      Poisson: 0.00 MiB
      vbar: 0.48 MiB
    Wavefunctions: 204.00 MiB
      Arrays psit_nG: 91.08 MiB
      Eigensolver: 103.90 MiB
      Projections: 1.05 MiB
      Projectors: 2.11 MiB
      PW-descriptor: 5.86 MiB

Total number of cores used: 16
Parallelization over k-points: 8
Domain decomposition: 1 x 1 x 2

Number of atoms: 29
Number of atomic orbitals: 332
Number of bands in calculation: 270
Number of valence electrons: 442
Bands to converge: occupied

... initialized

Initializing position-dependent things.

Density initialized from atomic densities
Creating initial wave functions:
  270 bands from LCAO basis set

                                            
                                            
                                            
                                            
                                            
                                            
                                            
           O                                
                 Pt     Pt     Pt           
           C                                
            Pt    PPt    PPt   Pt           
       Pt    PPt    PPt    Pt               
                                            
        Pt     Pt    PPt    Pt    Pt        
                                            
                Pt     Pt     Pt            
           Pt     Pt     Pt                 
                                            
                                            
                                            
                                            

Positions:
   0 Pt     1.403607    0.810373    6.000000    ( 0.0000,  0.0000,  0.0000)
   1 Pt     4.210821    0.810373    6.000000    ( 0.0000,  0.0000,  0.0000)
   2 Pt     7.018035    0.810373    6.000000    ( 0.0000,  0.0000,  0.0000)
   3 Pt     2.807214    3.241491    6.000000    ( 0.0000,  0.0000,  0.0000)
   4 Pt     5.614428    3.241491    6.000000    ( 0.0000,  0.0000,  0.0000)
   5 Pt     8.421642    3.241491    6.000000    ( 0.0000,  0.0000,  0.0000)
   6 Pt     4.210821    5.672610    6.000000    ( 0.0000,  0.0000,  0.0000)
   7 Pt     7.018035    5.672610    6.000000    ( 0.0000,  0.0000,  0.0000)
   8 Pt     9.825249    5.672610    6.000000    ( 0.0000,  0.0000,  0.0000)
   9 Pt    -0.000000    1.620746    8.292081    ( 0.0000,  0.0000,  0.0000)
  10 Pt     2.807214    1.620746    8.292081    ( 0.0000,  0.0000,  0.0000)
  11 Pt     5.614428    1.620746    8.292081    ( 0.0000,  0.0000,  0.0000)
  12 Pt     1.403607    4.051864    8.292081    ( 0.0000,  0.0000,  0.0000)
  13 Pt     4.210821    4.051864    8.292081    ( 0.0000,  0.0000,  0.0000)
  14 Pt     7.018035    4.051864    8.292081    ( 0.0000,  0.0000,  0.0000)
  15 Pt     2.807214    6.482983    8.292081    ( 0.0000,  0.0000,  0.0000)
  16 Pt     5.614428    6.482983    8.292081    ( 0.0000,  0.0000,  0.0000)
  17 Pt     8.421642    6.482983    8.292081    ( 0.0000,  0.0000,  0.0000)
  18 Pt     0.000000    0.000000   10.584161    ( 0.0000,  0.0000,  0.0000)
  19 Pt     2.807214    0.000000   10.584161    ( 0.0000,  0.0000,  0.0000)
  20 Pt     5.614428    0.000000   10.584161    ( 0.0000,  0.0000,  0.0000)
  21 Pt     1.403607    2.431119   10.584161    ( 0.0000,  0.0000,  0.0000)
  22 Pt     4.210821    2.431119   10.584161    ( 0.0000,  0.0000,  0.0000)
  23 Pt     7.018035    2.431119   10.584161    ( 0.0000,  0.0000,  0.0000)
  24 Pt     2.807214    4.862237   10.584161    ( 0.0000,  0.0000,  0.0000)
  25 Pt     5.614428    4.862237   10.584161    ( 0.0000,  0.0000,  0.0000)
  26 Pt     8.421642    4.862237   10.584161    ( 0.0000,  0.0000,  0.0000)
  27 O      1.403607    0.000000   13.734501    ( 0.0000,  0.0000,  0.0000)
  28 C      1.403607    0.000000   12.584161    ( 0.0000,  0.0000,  0.0000)

Unit cell:
           periodic     x           y           z      points  spacing
  1. axis:    yes    8.421642    0.000000    0.000000    42     0.1737
  2. axis:    yes    4.210821    7.293356    0.000000    42     0.1737
  3. axis:    no     0.000000    0.000000   16.584161    84     0.1974

  Lengths:   8.421642   8.421642  16.584161
  Angles:   90.000000  90.000000  60.000000

Effective grid spacing dv^(1/3) = 0.1901

     iter     time        total  log10-change:
                         energy  eigst   dens
iter:   1 12:25:22  -188.491799
iter:   2 12:25:31  -185.768426  -1.18  -1.40
iter:   3 12:25:40  -181.564407  -1.81  -1.45
iter:   4 12:25:49  -179.571567  -1.58  -1.55
iter:   5 12:25:57  -177.323860  -2.20  -1.70
iter:   6 12:26:06  -176.947917  -2.16  -1.90
iter:   7 12:26:15  -176.884181  -3.20  -2.19
iter:   8 12:26:24  -176.849427c -3.74  -2.23
iter:   9 12:26:32  -176.765664c -2.88  -2.28
iter:  10 12:26:41  -176.762434c -3.34  -2.71
iter:  11 12:26:50  -176.751749c -3.97  -2.83
iter:  12 12:26:59  -176.751381c -4.52  -3.05
iter:  13 12:27:08  -176.752226c -4.60  -3.09
iter:  14 12:27:16  -176.753399c -4.74  -3.18
iter:  15 12:27:25  -176.753744c -5.10  -3.28
iter:  16 12:27:34  -176.754899c -5.00  -3.36
iter:  17 12:27:43  -176.755161c -5.61  -3.68
iter:  18 12:27:51  -176.755181c -6.00  -3.83
iter:  19 12:28:00  -176.754949c -6.02  -3.91
iter:  20 12:28:09  -176.754905c -6.75  -4.10c
iter:  21 12:28:18  -176.754838c -6.85  -4.16c
iter:  22 12:28:26  -176.754813c -7.10  -4.23c
iter:  23 12:28:35  -176.754780c -7.60c -4.32c

Converged after 23 iterations.

Dipole moment: (-1.191165, -0.117425, 0.052746) |e|*Ang

Energy contributions relative to reference atoms: (reference = -13513203.275138)

Kinetic:       -301.171495
Potential:     +227.022602
External:        +0.000000
XC:             -87.003363
Entropy (-ST):   -1.765230
Local:          -14.719909
--------------------------
Free energy:   -177.637395
Extrapolated:  -176.754780

Showing only first 2 kpts
 Kpt  Band  Eigenvalues  Occupancy
  0   219      1.52249    1.18301
  0   220      1.60974    0.75397
  0   221      1.70286    0.38510
  0   222      1.72198    0.32910

  1   219      1.47516    1.39839
  1   220      1.49997    1.28921
  1   221      1.52223    1.18426
  1   222      1.53531    1.12041


Fermi level: 1.55951

No gap

Forces in eV/Ang:
  0 Pt   -0.00319    0.01597   -0.00037
  1 Pt    0.00398    0.00129   -0.04407
  2 Pt    0.00136    0.00408   -0.04691
  3 Pt    0.00712    0.00051   -0.10810
  4 Pt   -0.00225   -0.00114   -0.06787
  5 Pt   -0.01370    0.00206   -0.10996
  6 Pt   -0.01921   -0.00816   -0.06263
  7 Pt    0.02478   -0.00876   -0.06659
  8 Pt   -0.01161    0.00046   -0.13579
  9 Pt   -0.01056    0.01146   -0.04995
 10 Pt    0.01236    0.02007   -0.04231
 11 Pt    0.00188    0.01415    0.00248
 12 Pt    0.00526   -0.04966   -0.05220
 13 Pt    0.01861    0.01935   -0.00480
 14 Pt   -0.02602    0.02204   -0.00492
 15 Pt    0.11777    0.06910    0.14441
 16 Pt   -0.00038   -0.09020   -0.27547
 17 Pt   -0.11746    0.07357    0.16525
 18 Pt    0.31113   -0.03706    1.35678
 19 Pt   -0.30141   -0.04041    1.34412
 20 Pt    0.00053   -0.00385    0.01061
 21 Pt   -0.00677    0.33129    0.00579
 22 Pt    0.08479    0.08453    0.02811
 23 Pt   -0.08341    0.08051    0.02697
 24 Pt   -0.07198   -0.07132    0.02601
 25 Pt    0.00489   -0.37388   -0.00525
 26 Pt    0.07376   -0.06905    0.02506
 27 O    -0.00031    0.00257    0.49411
 28 C    -0.00034    0.00064   -2.53600

System changes: positions 

Initializing position-dependent things.

Density initialized from wave functions
                                            
                                            
                                            
                                            
                                            
                                            
                                            
           O                                
                 Pt     Pt     Pt           
           C                                
            Pt    PPt    PPt   Pt           
       Pt    PPt    PPt    Pt               
                                            
        Pt     Pt    PPt    Pt    Pt        
                                            
                Pt     Pt     Pt            
           Pt     Pt     Pt                 
                                            
                                            
                                            
                                            

Positions:
   0 Pt     1.403607    0.810373    6.000000    ( 0.0000,  0.0000,  0.0000)
   1 Pt     4.210821    0.810373    6.000000    ( 0.0000,  0.0000,  0.0000)
   2 Pt     7.018035    0.810373    6.000000    ( 0.0000,  0.0000,  0.0000)
   3 Pt     2.807214    3.241491    6.000000    ( 0.0000,  0.0000,  0.0000)
   4 Pt     5.614428    3.241491    6.000000    ( 0.0000,  0.0000,  0.0000)
   5 Pt     8.421642    3.241491    6.000000    ( 0.0000,  0.0000,  0.0000)
   6 Pt     4.210821    5.672610    6.000000    ( 0.0000,  0.0000,  0.0000)
   7 Pt     7.018035    5.672610    6.000000    ( 0.0000,  0.0000,  0.0000)
   8 Pt     9.825249    5.672610    6.000000    ( 0.0000,  0.0000,  0.0000)
   9 Pt    -0.000000    1.620746    8.292081    ( 0.0000,  0.0000,  0.0000)
  10 Pt     2.807214    1.620746    8.292081    ( 0.0000,  0.0000,  0.0000)
  11 Pt     5.614428    1.620746    8.292081    ( 0.0000,  0.0000,  0.0000)
  12 Pt     1.403607    4.051864    8.292081    ( 0.0000,  0.0000,  0.0000)
  13 Pt     4.210821    4.051864    8.292081    ( 0.0000,  0.0000,  0.0000)
  14 Pt     7.018035    4.051864    8.292081    ( 0.0000,  0.0000,  0.0000)
  15 Pt     2.807214    6.482983    8.292081    ( 0.0000,  0.0000,  0.0000)
  16 Pt     5.614428    6.482983    8.292081    ( 0.0000,  0.0000,  0.0000)
  17 Pt     8.421642    6.482983    8.292081    ( 0.0000,  0.0000,  0.0000)
  18 Pt     0.000000    0.000000   10.584161    ( 0.0000,  0.0000,  0.0000)
  19 Pt     2.807214    0.000000   10.584161    ( 0.0000,  0.0000,  0.0000)
  20 Pt     5.614428    0.000000   10.584161    ( 0.0000,  0.0000,  0.0000)
  21 Pt     1.403607    2.431119   10.584161    ( 0.0000,  0.0000,  0.0000)
  22 Pt     4.210821    2.431119   10.584161    ( 0.0000,  0.0000,  0.0000)
  23 Pt     7.018035    2.431119   10.584161    ( 0.0000,  0.0000,  0.0000)
  24 Pt     2.807214    4.862237   10.584161    ( 0.0000,  0.0000,  0.0000)
  25 Pt     5.614428    4.862237   10.584161    ( 0.0000,  0.0000,  0.0000)
  26 Pt     8.421642    4.862237   10.584161    ( 0.0000,  0.0000,  0.0000)
  27 O      1.403607    0.000000   13.734501    ( 0.0000,  0.0000,  0.0000)
  28 C      1.403553    0.000101   12.184161    ( 0.0000,  0.0000,  0.0000)

Unit cell:
           periodic     x           y           z      points  spacing
  1. axis:    yes    8.421642    0.000000    0.000000    42     0.1737
  2. axis:    yes    4.210821    7.293356    0.000000    42     0.1737
  3. axis:    no     0.000000    0.000000   16.584161    84     0.1974

  Lengths:   8.421642   8.421642  16.584161
  Angles:   90.000000  90.000000  60.000000

Effective grid spacing dv^(1/3) = 0.1901

     iter     time        total  log10-change:
                         energy  eigst   dens
iter:   1 12:28:49  -194.672151  -0.41
iter:   2 12:28:58  -190.243624  -1.48  -1.62
iter:   3 12:29:07  -186.905758  -1.61  -1.57
iter:   4 12:29:15  -177.071392  -1.98  -1.62
iter:   5 12:29:24  -175.642734  -2.70  -1.99
iter:   6 12:29:33  -175.226714  -3.32  -2.17
iter:   7 12:29:42  -174.856129  -2.58  -2.30
iter:   8 12:29:50  -174.791250  -3.36  -2.62
iter:   9 12:29:59  -174.664700c -3.37  -2.52
iter:  10 12:30:08  -174.639093c -4.33  -2.75
iter:  11 12:30:17  -174.637415c -4.80  -3.03
iter:  12 12:30:25  -174.638102c -5.14  -3.11
iter:  13 12:30:34  -174.639339c -4.95  -3.22
iter:  14 12:30:43  -174.641097c -5.12  -3.37
iter:  15 12:30:52  -174.641276c -5.98  -3.54
iter:  16 12:31:00  -174.641278c -6.27  -3.62
iter:  17 12:31:09  -174.641084c -5.40  -3.62
iter:  18 12:31:18  -174.640984c -6.60  -3.96
iter:  19 12:31:27  -174.640858c -6.99  -4.06c
iter:  20 12:31:35  -174.640591c -6.73  -4.20c
iter:  21 12:31:44  -174.640477c -7.38  -4.41c
iter:  22 12:31:53  -174.640434c -7.61c -4.56c

Converged after 22 iterations.

Dipole moment: (-0.679675, -0.154379, -0.737651) |e|*Ang

Energy contributions relative to reference atoms: (reference = -13513203.275138)

Kinetic:       -320.821429
Potential:     +244.401822
External:        +0.000000
XC:             -82.735170
Entropy (-ST):   -1.739414
Local:          -14.615950
--------------------------
Free energy:   -175.510141
Extrapolated:  -174.640434

Showing only first 2 kpts
 Kpt  Band  Eigenvalues  Occupancy
  0   219      1.23134    1.20521
  0   220      1.35386    0.61625
  0   221      1.41250    0.39714
  0   222      1.44588    0.30142

  1   219      1.17935    1.43667
  1   220      1.21059    1.30220
  1   221      1.22822    1.22012
  1   222      1.24557    1.13616


Fermi level: 1.27298

No gap

Forces in eV/Ang:
  0 Pt   -0.00446    0.00405   -0.00324
  1 Pt    0.01195   -0.01258   -0.02399
  2 Pt   -0.00242   -0.01438   -0.02462
  3 Pt   -0.01372    0.03763   -0.12999
  4 Pt   -0.00179    0.00683   -0.07044
  5 Pt    0.00907    0.04004   -0.13440
  6 Pt   -0.02499   -0.00820   -0.05237
  7 Pt    0.03271   -0.01126   -0.05322
  8 Pt   -0.01404   -0.06765   -0.32924
  9 Pt   -0.04486    0.03270   -0.08622
 10 Pt    0.04515    0.03904   -0.07612
 11 Pt   -0.00010    0.01075    0.00415
 12 Pt    0.00429   -0.02170   -0.03545
 13 Pt    0.02152   -0.00389    0.00387
 14 Pt   -0.02484   -0.00067    0.00303
 15 Pt    0.02560    0.05109    0.17341
 16 Pt   -0.00025   -0.08991   -0.38442
 17 Pt   -0.02660    0.05520    0.19254
 18 Pt    0.47158   -0.07339    1.76172
 19 Pt   -0.46249   -0.08027    1.73956
 20 Pt    0.00265   -0.01280   -0.00000
 21 Pt   -0.00908    0.41810    0.10227
 22 Pt    0.13259    0.13054    0.00980
 23 Pt   -0.13280    0.12456    0.01092
 24 Pt   -0.10834   -0.08817   -0.01644
 25 Pt    0.00702   -0.42331    0.11120
 26 Pt    0.10931   -0.08831   -0.01878
 27 O    -0.00087   -0.00366   -9.76937
 28 C    -0.00187    0.04993    7.07338

System changes: positions 

Initializing position-dependent things.

Density initialized from wave functions
                                            
                                            
                                            
                                            
                                            
                                            
                                            
           O                                
                 Pt     Pt     Pt           
           C                                
            Pt    PPt    PPt   Pt           
       Pt    PPt    PPt    Pt               
                                            
        Pt     Pt    PPt    Pt    Pt        
                                            
                Pt     Pt     Pt            
           Pt     Pt     Pt                 
                                            
                                            
                                            
                                            

Positions:
   0 Pt     1.403607    0.810373    6.000000    ( 0.0000,  0.0000,  0.0000)
   1 Pt     4.210821    0.810373    6.000000    ( 0.0000,  0.0000,  0.0000)
   2 Pt     7.018035    0.810373    6.000000    ( 0.0000,  0.0000,  0.0000)
   3 Pt     2.807214    3.241491    6.000000    ( 0.0000,  0.0000,  0.0000)
   4 Pt     5.614428    3.241491    6.000000    ( 0.0000,  0.0000,  0.0000)
   5 Pt     8.421642    3.241491    6.000000    ( 0.0000,  0.0000,  0.0000)
   6 Pt     4.210821    5.672610    6.000000    ( 0.0000,  0.0000,  0.0000)
   7 Pt     7.018035    5.672610    6.000000    ( 0.0000,  0.0000,  0.0000)
   8 Pt     9.825249    5.672610    6.000000    ( 0.0000,  0.0000,  0.0000)
   9 Pt    -0.000000    1.620746    8.292081    ( 0.0000,  0.0000,  0.0000)
  10 Pt     2.807214    1.620746    8.292081    ( 0.0000,  0.0000,  0.0000)
  11 Pt     5.614428    1.620746    8.292081    ( 0.0000,  0.0000,  0.0000)
  12 Pt     1.403607    4.051864    8.292081    ( 0.0000,  0.0000,  0.0000)
  13 Pt     4.210821    4.051864    8.292081    ( 0.0000,  0.0000,  0.0000)
  14 Pt     7.018035    4.051864    8.292081    ( 0.0000,  0.0000,  0.0000)
  15 Pt     2.807214    6.482983    8.292081    ( 0.0000,  0.0000,  0.0000)
  16 Pt     5.614428    6.482983    8.292081    ( 0.0000,  0.0000,  0.0000)
  17 Pt     8.421642    6.482983    8.292081    ( 0.0000,  0.0000,  0.0000)
  18 Pt     0.000000    0.000000   10.584161    ( 0.0000,  0.0000,  0.0000)
  19 Pt     2.807214    0.000000   10.584161    ( 0.0000,  0.0000,  0.0000)
  20 Pt     5.614428    0.000000   10.584161    ( 0.0000,  0.0000,  0.0000)
  21 Pt     1.403607    2.431119   10.584161    ( 0.0000,  0.0000,  0.0000)
  22 Pt     4.210821    2.431119   10.584161    ( 0.0000,  0.0000,  0.0000)
  23 Pt     7.018035    2.431119   10.584161    ( 0.0000,  0.0000,  0.0000)
  24 Pt     2.807214    4.862237   10.584161    ( 0.0000,  0.0000,  0.0000)
  25 Pt     5.614428    4.862237   10.584161    ( 0.0000,  0.0000,  0.0000)
  26 Pt     8.421642    4.862237   10.584161    ( 0.0000,  0.0000,  0.0000)
  27 O      1.403607    0.000000   13.734501    ( 0.0000,  0.0000,  0.0000)
  28 C      1.403577    0.000448   12.537841    ( 0.0000,  0.0000,  0.0000)

Unit cell:
           periodic     x           y           z      points  spacing
  1. axis:    yes    8.421642    0.000000    0.000000    42     0.1737
  2. axis:    yes    4.210821    7.293356    0.000000    42     0.1737
  3. axis:    no     0.000000    0.000000   16.584161    84     0.1974

  Lengths:   8.421642   8.421642  16.584161
  Angles:   90.000000  90.000000  60.000000

Effective grid spacing dv^(1/3) = 0.1901

     iter     time        total  log10-change:
                         energy  eigst   dens
iter:   1 12:32:07  -181.571341  -1.52
iter:   2 12:32:15  -179.458905  -2.55  -1.99
iter:   3 12:32:24  -180.788347  -2.28  -2.11
iter:   4 12:32:33  -177.678666  -2.69  -1.84
iter:   5 12:32:42  -177.220048  -2.95  -2.36
iter:   6 12:32:50  -177.025084  -3.40  -2.36
iter:   7 12:32:59  -176.863530  -3.17  -2.44
iter:   8 12:33:08  -176.815038c -3.63  -2.71
iter:   9 12:33:17  -176.799656c -3.73  -2.86
iter:  10 12:33:25  -176.790245c -4.37  -2.91
iter:  11 12:33:34  -176.786708c -4.74  -3.12
iter:  12 12:33:43  -176.784679c -4.87  -3.24
iter:  13 12:33:52  -176.784063c -5.31  -3.35
iter:  14 12:34:00  -176.783977c -5.67  -3.48
iter:  15 12:34:09  -176.783693c -5.58  -3.54
iter:  16 12:34:18  -176.783658c -6.23  -3.82
iter:  17 12:34:27  -176.783328c -6.18  -3.76
iter:  18 12:34:35  -176.783305c -6.57  -4.00
iter:  19 12:34:44  -176.783280c -6.72  -4.02c
iter:  20 12:34:53  -176.783296c -6.97  -4.28c
iter:  21 12:35:02  -176.783278c -7.47c -4.44c

Converged after 21 iterations.

Dipole moment: (-1.147351, -0.146976, -0.053798) |e|*Ang

Energy contributions relative to reference atoms: (reference = -13513203.275138)

Kinetic:       -309.564486
Potential:     +234.199530
External:        +0.000000
XC:             -85.911096
Entropy (-ST):   -1.760720
Local:          -14.626866
--------------------------
Free energy:   -177.663637
Extrapolated:  -176.783278

Showing only first 2 kpts
 Kpt  Band  Eigenvalues  Occupancy
  0   219      1.48487    1.18601
  0   220      1.58115    0.71493
  0   221      1.66479    0.38845
  0   222      1.68573    0.32707

  1   219      1.43692    1.40362
  1   220      1.46248    1.29145
  1   221      1.48416    1.18946
  1   222      1.49790    1.12242


Fermi level: 1.52251

No gap

Forces in eV/Ang:
  0 Pt   -0.00369    0.01509   -0.00132
  1 Pt    0.00554    0.00033   -0.04275
  2 Pt    0.00071    0.00296   -0.04524
  3 Pt    0.00441    0.00491   -0.11383
  4 Pt   -0.00201   -0.00074   -0.06933
  5 Pt   -0.01112    0.00661   -0.11674
  6 Pt   -0.01943   -0.00827   -0.06261
  7 Pt    0.02567   -0.00953   -0.06701
  8 Pt   -0.01260   -0.00696   -0.16224
  9 Pt   -0.01253    0.01024   -0.04928
 10 Pt    0.01435    0.01871   -0.04105
 11 Pt    0.00148    0.01492    0.00098
 12 Pt    0.00544   -0.04838   -0.05179
 13 Pt    0.02021    0.01681   -0.00520
 14 Pt   -0.02731    0.01985   -0.00548
 15 Pt    0.11340    0.07071    0.15544
 16 Pt   -0.00024   -0.08687   -0.28025
 17 Pt   -0.11337    0.07540    0.17677
 18 Pt    0.35030   -0.04380    1.48006
 19 Pt   -0.34020   -0.04769    1.46577
 20 Pt    0.00082   -0.00588    0.00422
 21 Pt   -0.00742    0.35586    0.01566
 22 Pt    0.08716    0.09039    0.02675
 23 Pt   -0.08576    0.08604    0.02625
 24 Pt   -0.07413   -0.07358    0.02028
 25 Pt    0.00537   -0.39263    0.00658
 26 Pt    0.07553   -0.07152    0.01951
 27 O    -0.00029    0.00393   -3.52630
 28 C    -0.00031    0.00319    1.20919

System changes: positions 

Initializing position-dependent things.

Density initialized from wave functions
                                            
                                            
                                            
                                            
                                            
                                            
                                            
           O                                
                 Pt     Pt     Pt           
           C                                
            Pt    PPt    PPt   Pt           
       Pt    PPt    PPt    Pt               
                                            
        Pt     Pt    PPt    Pt    Pt        
                                            
                Pt     Pt     Pt            
           Pt     Pt     Pt                 
                                            
                                            
                                            
                                            

Positions:
   0 Pt     1.403607    0.810373    6.000000    ( 0.0000,  0.0000,  0.0000)
   1 Pt     4.210821    0.810373    6.000000    ( 0.0000,  0.0000,  0.0000)
   2 Pt     7.018035    0.810373    6.000000    ( 0.0000,  0.0000,  0.0000)
   3 Pt     2.807214    3.241491    6.000000    ( 0.0000,  0.0000,  0.0000)
   4 Pt     5.614428    3.241491    6.000000    ( 0.0000,  0.0000,  0.0000)
   5 Pt     8.421642    3.241491    6.000000    ( 0.0000,  0.0000,  0.0000)
   6 Pt     4.210821    5.672610    6.000000    ( 0.0000,  0.0000,  0.0000)
   7 Pt     7.018035    5.672610    6.000000    ( 0.0000,  0.0000,  0.0000)
   8 Pt     9.825249    5.672610    6.000000    ( 0.0000,  0.0000,  0.0000)
   9 Pt    -0.000000    1.620746    8.292081    ( 0.0000,  0.0000,  0.0000)
  10 Pt     2.807214    1.620746    8.292081    ( 0.0000,  0.0000,  0.0000)
  11 Pt     5.614428    1.620746    8.292081    ( 0.0000,  0.0000,  0.0000)
  12 Pt     1.403607    4.051864    8.292081    ( 0.0000,  0.0000,  0.0000)
  13 Pt     4.210821    4.051864    8.292081    ( 0.0000,  0.0000,  0.0000)
  14 Pt     7.018035    4.051864    8.292081    ( 0.0000,  0.0000,  0.0000)
  15 Pt     2.807214    6.482983    8.292081    ( 0.0000,  0.0000,  0.0000)
  16 Pt     5.614428    6.482983    8.292081    ( 0.0000,  0.0000,  0.0000)
  17 Pt     8.421642    6.482983    8.292081    ( 0.0000,  0.0000,  0.0000)
  18 Pt     0.000000    0.000000   10.584161    ( 0.0000,  0.0000,  0.0000)
  19 Pt     2.807214    0.000000   10.584161    ( 0.0000,  0.0000,  0.0000)
  20 Pt     5.614428    0.000000   10.584161    ( 0.0000,  0.0000,  0.0000)
  21 Pt     1.403607    2.431119   10.584161    ( 0.0000,  0.0000,  0.0000)
  22 Pt     4.210821    2.431119   10.584161    ( 0.0000,  0.0000,  0.0000)
  23 Pt     7.018035    2.431119   10.584161    ( 0.0000,  0.0000,  0.0000)
  24 Pt     2.807214    4.862237   10.584161    ( 0.0000,  0.0000,  0.0000)
  25 Pt     5.614428    4.862237   10.584161    ( 0.0000,  0.0000,  0.0000)
  26 Pt     8.421642    4.862237   10.584161    ( 0.0000,  0.0000,  0.0000)
  27 O      1.403607    0.000000   13.734501    ( 0.0000,  0.0000,  0.0000)
  28 C      1.403570    0.000483   12.554052    ( 0.0000,  0.0000,  0.0000)

Unit cell:
           periodic     x           y           z      points  spacing
  1. axis:    yes    8.421642    0.000000    0.000000    42     0.1737
  2. axis:    yes    4.210821    7.293356    0.000000    42     0.1737
  3. axis:    no     0.000000    0.000000   16.584161    84     0.1974

  Lengths:   8.421642   8.421642  16.584161
  Angles:   90.000000  90.000000  60.000000

Effective grid spacing dv^(1/3) = 0.1901

     iter     time        total  log10-change:
                         energy  eigst   dens
iter:   1 12:35:15  -176.848999  -3.66
iter:   2 12:35:24  -176.883392  -3.76  -2.76
iter:   3 12:35:33  -176.808864c -4.25  -2.64
iter:   4 12:35:42  -176.796698c -4.72  -3.20
iter:   5 12:35:50  -176.794402c -5.12  -3.56
iter:   6 12:35:59  -176.792544c -5.28  -3.56
iter:   7 12:36:08  -176.792097c -5.71  -3.92
iter:   8 12:36:17  -176.792299c -6.20  -3.91
iter:   9 12:36:25  -176.792392c -6.75  -4.11c
iter:  10 12:36:34  -176.792409c -6.95  -4.13c
iter:  11 12:36:43  -176.792389c -7.18  -4.24c
iter:  12 12:36:52  -176.792424c -7.02  -4.48c
iter:  13 12:37:00  -176.792419c -8.20c -4.64c

Converged after 13 iterations.

Dipole moment: (-1.168043, -0.147931, -0.016188) |e|*Ang

Energy contributions relative to reference atoms: (reference = -13513203.275138)

Kinetic:       -308.100163
Potential:     +233.022850
External:        +0.000000
XC:             -86.223918
Entropy (-ST):   -1.762350
Local:          -14.610013
--------------------------
Free energy:   -177.673594
Extrapolated:  -176.792419

Showing only first 2 kpts
 Kpt  Band  Eigenvalues  Occupancy
  0   219      1.49938    1.18493
  0   220      1.59260    0.72800
  0   221      1.67943    0.38735
  0   222      1.69961    0.32819

  1   219      1.45167    1.40167
  1   220      1.47695    1.29065
  1   221      1.49881    1.18769
  1   222      1.51233    1.12172


Fermi level: 1.53680

No gap

Forces in eV/Ang:
  0 Pt   -0.00355    0.01608    0.00639
  1 Pt    0.00505    0.00082   -0.03794
  2 Pt    0.00082    0.00338   -0.04042
  3 Pt    0.00542    0.00323   -0.10744
  4 Pt   -0.00217   -0.00072   -0.06423
  5 Pt   -0.01200    0.00481   -0.10967
  6 Pt   -0.01937   -0.00872   -0.05641
  7 Pt    0.02530   -0.00966   -0.06072
  8 Pt   -0.01220   -0.00428   -0.14688
  9 Pt   -0.01387    0.01257   -0.04945
 10 Pt    0.01568    0.02109   -0.04146
 11 Pt    0.00163    0.01428    0.00743
 12 Pt    0.00542   -0.04854   -0.04716
 13 Pt    0.01959    0.01733   -0.00067
 14 Pt   -0.02681    0.02024   -0.00097
 15 Pt    0.11407    0.07088    0.15628
 16 Pt   -0.00027   -0.09145   -0.28539
 17 Pt   -0.11396    0.07549    0.17741
 18 Pt    0.36458   -0.04144    1.45179
 19 Pt   -0.35459   -0.04512    1.43793
 20 Pt    0.00082   -0.00510    0.00354
 21 Pt   -0.00722    0.33920    0.01028
 22 Pt    0.08591    0.08741    0.02224
 23 Pt   -0.08448    0.08312    0.02142
 24 Pt   -0.07315   -0.07221    0.01857
 25 Pt    0.00515   -0.37727    0.00003
 26 Pt    0.07483   -0.07013    0.01744
 27 O    -0.00030    0.00372   -2.23386
 28 C    -0.00029    0.00140    0.01759

System changes: positions 

Initializing position-dependent things.

Density initialized from wave functions
                                            
                                            
                                            
                                            
                                            
                                            
                                            
           O                                
                 Pt     Pt     Pt           
           C                                
            Pt    PPt    PPt   Pt           
       Pt    PPt    PPt    Pt               
                                            
        Pt     Pt    PPt    Pt    Pt        
                                            
                Pt     Pt     Pt            
           Pt     Pt     Pt                 
                                            
                                            
                                            
                                            

Positions:
   0 Pt     1.403607    0.810373    6.000000    ( 0.0000,  0.0000,  0.0000)
   1 Pt     4.210821    0.810373    6.000000    ( 0.0000,  0.0000,  0.0000)
   2 Pt     7.018035    0.810373    6.000000    ( 0.0000,  0.0000,  0.0000)
   3 Pt     2.807214    3.241491    6.000000    ( 0.0000,  0.0000,  0.0000)
   4 Pt     5.614428    3.241491    6.000000    ( 0.0000,  0.0000,  0.0000)
   5 Pt     8.421642    3.241491    6.000000    ( 0.0000,  0.0000,  0.0000)
   6 Pt     4.210821    5.672610    6.000000    ( 0.0000,  0.0000,  0.0000)
   7 Pt     7.018035    5.672610    6.000000    ( 0.0000,  0.0000,  0.0000)
   8 Pt     9.825249    5.672610    6.000000    ( 0.0000,  0.0000,  0.0000)
   9 Pt    -0.000000    1.620746    8.292081    ( 0.0000,  0.0000,  0.0000)
  10 Pt     2.807214    1.620746    8.292081    ( 0.0000,  0.0000,  0.0000)
  11 Pt     5.614428    1.620746    8.292081    ( 0.0000,  0.0000,  0.0000)
  12 Pt     1.403607    4.051864    8.292081    ( 0.0000,  0.0000,  0.0000)
  13 Pt     4.210821    4.051864    8.292081    ( 0.0000,  0.0000,  0.0000)
  14 Pt     7.018035    4.051864    8.292081    ( 0.0000,  0.0000,  0.0000)
  15 Pt     2.807214    6.482983    8.292081    ( 0.0000,  0.0000,  0.0000)
  16 Pt     5.614428    6.482983    8.292081    ( 0.0000,  0.0000,  0.0000)
  17 Pt     8.421642    6.482983    8.292081    ( 0.0000,  0.0000,  0.0000)
  18 Pt     0.000000    0.000000   10.584161    ( 0.0000,  0.0000,  0.0000)
  19 Pt     2.807214    0.000000   10.584161    ( 0.0000,  0.0000,  0.0000)
  20 Pt     5.614428    0.000000   10.584161    ( 0.0000,  0.0000,  0.0000)
  21 Pt     1.403607    2.431119   10.584161    ( 0.0000,  0.0000,  0.0000)
  22 Pt     4.210821    2.431119   10.584161    ( 0.0000,  0.0000,  0.0000)
  23 Pt     7.018035    2.431119   10.584161    ( 0.0000,  0.0000,  0.0000)
  24 Pt     2.807214    4.862237   10.584161    ( 0.0000,  0.0000,  0.0000)
  25 Pt     5.614428    4.862237   10.584161    ( 0.0000,  0.0000,  0.0000)
  26 Pt     8.421642    4.862237   10.584161    ( 0.0000,  0.0000,  0.0000)
  27 O      1.403607    0.000000   13.734501    ( 0.0000,  0.0000,  0.0000)
  28 C      1.403563    0.000513   12.554228    ( 0.0000,  0.0000,  0.0000)

Unit cell:
           periodic     x           y           z      points  spacing
  1. axis:    yes    8.421642    0.000000    0.000000    42     0.1737
  2. axis:    yes    4.210821    7.293356    0.000000    42     0.1737
  3. axis:    no     0.000000    0.000000   16.584161    84     0.1974

  Lengths:   8.421642   8.421642  16.584161
  Angles:   90.000000  90.000000  60.000000

Effective grid spacing dv^(1/3) = 0.1901

     iter     time        total  log10-change:
                         energy  eigst   dens
iter:   1 12:37:14  -176.792336  -6.24
iter:   2 12:37:23  -176.792468  -6.71  -4.14c
iter:   3 12:37:31  -176.792358c -7.11  -4.09c
iter:   4 12:37:40  -176.792379c -7.08  -4.42c
iter:   5 12:37:49  -176.792382c -7.76c -4.89c

Converged after 5 iterations.

Dipole moment: (-1.170671, -0.149864, -0.016136) |e|*Ang

Energy contributions relative to reference atoms: (reference = -13513203.275138)

Kinetic:       -308.027951
Potential:     +232.970296
External:        +0.000000
XC:             -86.218208
Entropy (-ST):   -1.762431
Local:          -14.635303
--------------------------
Free energy:   -177.673598
Extrapolated:  -176.792382

Showing only first 2 kpts
 Kpt  Band  Eigenvalues  Occupancy
  0   219      1.49858    1.18496
  0   220      1.59176    0.72823
  0   221      1.67860    0.38747
  0   222      1.69881    0.32819

  1   219      1.45086    1.40174
  1   220      1.47615    1.29064
  1   221      1.49802    1.18769
  1   222      1.51154    1.12173


Fermi level: 1.53601

No gap

Forces in eV/Ang:
  0 Pt   -0.00355    0.01588    0.00251
  1 Pt    0.00531    0.00062   -0.04177
  2 Pt    0.00062    0.00323   -0.04434
  3 Pt    0.00541    0.00342   -0.11079
  4 Pt   -0.00216   -0.00087   -0.06809
  5 Pt   -0.01197    0.00502   -0.11310
  6 Pt   -0.01952   -0.00857   -0.06004
  7 Pt    0.02548   -0.00954   -0.06432
  8 Pt   -0.01221   -0.00415   -0.15098
  9 Pt   -0.01322    0.01160   -0.05013
 10 Pt    0.01505    0.02009   -0.04209
 11 Pt    0.00163    0.01417    0.00495
 12 Pt    0.00540   -0.04883   -0.04915
 13 Pt    0.01990    0.01768   -0.00259
 14 Pt   -0.02709    0.02061   -0.00287
 15 Pt    0.11453    0.07090    0.15375
 16 Pt   -0.00023   -0.09021   -0.28358
 17 Pt   -0.11442    0.07551    0.17487
 18 Pt    0.35423   -0.04142    1.44880
 19 Pt   -0.34421   -0.04508    1.43488
 20 Pt    0.00075   -0.00514    0.00769
 21 Pt   -0.00718    0.34287    0.01540
 22 Pt    0.08706    0.08889    0.02793
 23 Pt   -0.08570    0.08462    0.02703
 24 Pt   -0.07425   -0.07357    0.02392
 25 Pt    0.00513   -0.38131    0.00513
 26 Pt    0.07590   -0.07143    0.02281
 27 O    -0.00035    0.00393   -2.25644
 28 C    -0.00035    0.00173    0.02771

System changes: positions 

Initializing position-dependent things.

Density initialized from wave functions
                                            
                                            
                                            
                                            
                                            
                                            
                                            
           O                                
                 Pt     Pt     Pt           
           C                                
            Pt    PPt    PPt   Pt           
       Pt    PPt    PPt    Pt               
                                            
        Pt     Pt    PPt    Pt    Pt        
                                            
                Pt     Pt     Pt            
           Pt     Pt     Pt                 
                                            
                                            
                                            
                                            

Positions:
   0 Pt     1.403607    0.810373    6.000000    ( 0.0000,  0.0000,  0.0000)
   1 Pt     4.210821    0.810373    6.000000    ( 0.0000,  0.0000,  0.0000)
   2 Pt     7.018035    0.810373    6.000000    ( 0.0000,  0.0000,  0.0000)
   3 Pt     2.807214    3.241491    6.000000    ( 0.0000,  0.0000,  0.0000)
   4 Pt     5.614428    3.241491    6.000000    ( 0.0000,  0.0000,  0.0000)
   5 Pt     8.421642    3.241491    6.000000    ( 0.0000,  0.0000,  0.0000)
   6 Pt     4.210821    5.672610    6.000000    ( 0.0000,  0.0000,  0.0000)
   7 Pt     7.018035    5.672610    6.000000    ( 0.0000,  0.0000,  0.0000)
   8 Pt     9.825249    5.672610    6.000000    ( 0.0000,  0.0000,  0.0000)
   9 Pt    -0.000000    1.620746    8.292081    ( 0.0000,  0.0000,  0.0000)
  10 Pt     2.807214    1.620746    8.292081    ( 0.0000,  0.0000,  0.0000)
  11 Pt     5.614428    1.620746    8.292081    ( 0.0000,  0.0000,  0.0000)
  12 Pt     1.403607    4.051864    8.292081    ( 0.0000,  0.0000,  0.0000)
  13 Pt     4.210821    4.051864    8.292081    ( 0.0000,  0.0000,  0.0000)
  14 Pt     7.018035    4.051864    8.292081    ( 0.0000,  0.0000,  0.0000)
  15 Pt     2.807214    6.482983    8.292081    ( 0.0000,  0.0000,  0.0000)
  16 Pt     5.614428    6.482983    8.292081    ( 0.0000,  0.0000,  0.0000)
  17 Pt     8.421642    6.482983    8.292081    ( 0.0000,  0.0000,  0.0000)
  18 Pt     0.000000    0.000000   10.584161    ( 0.0000,  0.0000,  0.0000)
  19 Pt     2.807214    0.000000   10.584161    ( 0.0000,  0.0000,  0.0000)
  20 Pt     5.614428    0.000000   10.584161    ( 0.0000,  0.0000,  0.0000)
  21 Pt     1.403607    2.431119   10.584161    ( 0.0000,  0.0000,  0.0000)
  22 Pt     4.210821    2.431119   10.584161    ( 0.0000,  0.0000,  0.0000)
  23 Pt     7.018035    2.431119   10.584161    ( 0.0000,  0.0000,  0.0000)
  24 Pt     2.807214    4.862237   10.584161    ( 0.0000,  0.0000,  0.0000)
  25 Pt     5.614428    4.862237   10.584161    ( 0.0000,  0.0000,  0.0000)
  26 Pt     8.421642    4.862237   10.584161    ( 0.0000,  0.0000,  0.0000)
  27 O      1.403607    0.000000   13.734501    ( 0.0000,  0.0000,  0.0000)
  28 C      1.403558    0.000539   12.554388    ( 0.0000,  0.0000,  0.0000)

Unit cell:
           periodic     x           y           z      points  spacing
  1. axis:    yes    8.421642    0.000000    0.000000    42     0.1737
  2. axis:    yes    4.210821    7.293356    0.000000    42     0.1737
  3. axis:    no     0.000000    0.000000   16.584161    84     0.1974

  Lengths:   8.421642   8.421642  16.584161
  Angles:   90.000000  90.000000  60.000000

Effective grid spacing dv^(1/3) = 0.1901

     iter     time        total  log10-change:
                         energy  eigst   dens
iter:   1 12:38:02  -176.792444  -7.32
iter:   2 12:38:11  -176.792426  -7.81c -4.70c
iter:   3 12:38:20  -176.792421c -8.17c -4.65c

Converged after 3 iterations.

Dipole moment: (-1.170477, -0.151185, -0.016735) |e|*Ang

Energy contributions relative to reference atoms: (reference = -13513203.275138)

Kinetic:       -308.047182
Potential:     +232.991606
External:        +0.000000
XC:             -86.220924
Entropy (-ST):   -1.762361
Local:          -14.634741
--------------------------
Free energy:   -177.673601
Extrapolated:  -176.792421

Showing only first 2 kpts
 Kpt  Band  Eigenvalues  Occupancy
  0   219      1.49872    1.18492
  0   220      1.59199    0.72776
  0   221      1.67872    0.38749
  0   222      1.69895    0.32816

  1   219      1.45099    1.40172
  1   220      1.47626    1.29071
  1   221      1.49814    1.18772
  1   222      1.51166    1.12177


Fermi level: 1.53613

No gap

Forces in eV/Ang:
  0 Pt   -0.00358    0.01566    0.00529
  1 Pt    0.00505    0.00033   -0.03862
  2 Pt    0.00088    0.00293   -0.04117
  3 Pt    0.00544    0.00322   -0.10734
  4 Pt   -0.00214   -0.00086   -0.06419
  5 Pt   -0.01202    0.00482   -0.10965
  6 Pt   -0.01961   -0.00817   -0.05709
  7 Pt    0.02555   -0.00917   -0.06137
  8 Pt   -0.01221   -0.00375   -0.14773
  9 Pt   -0.01428    0.01252   -0.04877
 10 Pt    0.01609    0.02105   -0.04071
 11 Pt    0.00164    0.01469    0.00738
 12 Pt    0.00539   -0.04816   -0.04736
 13 Pt    0.01941    0.01704   -0.00064
 14 Pt   -0.02659    0.01997   -0.00095
 15 Pt    0.11381    0.07038    0.15540
 16 Pt   -0.00025   -0.09086   -0.28242
 17 Pt   -0.11368    0.07496    0.17656
 18 Pt    0.36159   -0.04147    1.45292
 19 Pt   -0.35156   -0.04515    1.43898
 20 Pt    0.00075   -0.00495    0.00458
 21 Pt   -0.00721    0.33717    0.01488
 22 Pt    0.08599    0.08746    0.02521
 23 Pt   -0.08461    0.08325    0.02431
 24 Pt   -0.07296   -0.07221    0.02112
 25 Pt    0.00518   -0.37561    0.00453
 26 Pt    0.07460   -0.07010    0.02009
 27 O    -0.00035    0.00387   -2.23703
 28 C    -0.00032    0.00135   -0.00002

Timing:                                      incl.     excl.
-------------------------------------------------------------------
Density initialized from wave functions:     3.660     3.659   0.5% |
 Symmetrize density:                         0.000     0.000   0.0% |
Forces:                                     20.401    20.401   2.5% ||
Hamiltonian:                                 4.097     0.024   0.0% |
 Atomic:                                     0.895     0.464   0.1% |
  XC Correction:                             0.431     0.431   0.1% |
 Calculate atomic Hamiltonians:              1.825     1.825   0.2% |
 Communicate:                                0.013     0.013   0.0% |
 Initialize Hamiltonian:                     0.001     0.001   0.0% |
 Poisson:                                    0.016     0.016   0.0% |
 XC 3D grid:                                 1.323     1.323   0.2% |
LCAO initialization:                        16.782     0.317   0.0% |
 LCAO eigensolver:                           2.432     0.001   0.0% |
  Calculate projections:                     0.004     0.004   0.0% |
  DenseAtomicCorrection:                     0.005     0.005   0.0% |
  Distribute overlap matrix:                 0.349     0.349   0.0% |
  Orbital Layouts:                           0.078     0.078   0.0% |
  Potential matrix:                          1.963     1.963   0.2% |
  Sum over cells:                            0.032     0.032   0.0% |
 LCAO to grid:                              13.481    13.481   1.7% ||
 Set positions (LCAO WFS):                   0.552     0.279   0.0% |
  Basic WFS set positions:                   0.001     0.001   0.0% |
  Basis functions set positions:             0.000     0.000   0.0% |
  P tci:                                     0.132     0.132   0.0% |
  ST tci:                                    0.109     0.109   0.0% |
  mktci:                                     0.032     0.032   0.0% |
PWDescriptor:                                0.019     0.019   0.0% |
Redistribute:                                0.009     0.009   0.0% |
SCF-cycle:                                 756.894     0.809   0.1% |
 Davidson:                                 638.721   119.880  14.8% |-----|
  Apply H:                                  65.112    63.325   7.8% |--|
   HMM T:                                    1.787     1.787   0.2% |
  Subspace diag:                           110.803     0.011   0.0% |
   calc_h_matrix:                           80.366    15.881   2.0% ||
    Apply H:                                64.485    62.694   7.8% |--|
     HMM T:                                  1.792     1.792   0.2% |
   diagonalize:                              2.906     2.906   0.4% |
   rotate_psi:                              27.519    27.519   3.4% ||
  calc. matrices:                          228.905    99.050  12.2% |----|
   Apply H:                                129.855   126.300  15.6% |-----|
    HMM T:                                   3.555     3.555   0.4% |
  diagonalize:                              60.075    60.075   7.4% |--|
  rotate_psi:                               53.947    53.947   6.7% |--|
 Density:                                   58.834     0.002   0.0% |
  Atomic density matrices:                   0.352     0.352   0.0% |
  Mix:                                      26.923    26.923   3.3% ||
  Multipole moments:                         0.036     0.036   0.0% |
  Pseudo density:                           31.521    31.519   3.9% |-|
   Symmetrize density:                       0.002     0.002   0.0% |
 Hamiltonian:                               55.098     0.345   0.0% |
  Atomic:                                   11.938     6.125   0.8% |
   XC Correction:                            5.813     5.813   0.7% |
  Calculate atomic Hamiltonians:            24.423    24.423   3.0% ||
  Communicate:                               0.260     0.260   0.0% |
  Poisson:                                   0.260     0.260   0.0% |
  XC 3D grid:                               17.872    17.872   2.2% ||
 Orthonormalize:                             3.432     0.002   0.0% |
  calc_s_matrix:                             0.534     0.534   0.1% |
  inverse-cholesky:                          0.094     0.094   0.0% |
  projections:                               1.849     1.849   0.2% |
  rotate_psi_s:                              0.954     0.954   0.1% |
Set symmetry:                                0.001     0.001   0.0% |
Other:                                       7.070     7.070   0.9% |
-------------------------------------------------------------------
Total:                                               808.933 100.0%

Memory usage: 863.46 MiB
Date: Thu Mar  2 12:38:24 2023
