
  ___ ___ ___ _ _ _  
 |   |   |_  | | | | 
 | | | | | . | | | | 
 |__ |  _|___|_____|  22.8.0
 |___|_|             

User:   gotols@vera07-3
Date:   Thu Mar  2 14:39:06 2023
Arch:   x86_64
Pid:    1667366
CWD:    /cephyr/users/gotols/Vera/TIF320-Computational-materials-and-molecular-physics-Assignments
Python: 3.10.4
gpaw:   /apps/Arch/software/GPAW/22.8.0-foss-2022a/lib/python3.10/site-packages/gpaw
_gpaw:  /apps/Arch/software/GPAW/22.8.0-foss-2022a/lib/python3.10/site-packages/
        _gpaw.cpython-310-x86_64-linux-gnu.so
ase:    /apps/Arch/software/ASE/3.22.1-foss-2022a/lib/python3.10/site-packages/ase (version 3.22.1)
numpy:  /apps/Arch/software/SciPy-bundle/2022.05-foss-2022a/lib/python3.10/site-packages/numpy (version 1.22.3)
scipy:  /apps/Arch/software/SciPy-bundle/2022.05-foss-2022a/lib/python3.10/site-packages/scipy (version 1.8.1)
libxc:  5.2.3
units:  Angstrom and eV
cores: 16
OpenMP: False
OMP_NUM_THREADS: 1

Input parameters:
  kpts: [4 4 1]
  mode: {ecut: 450.00000000000006,
         name: pw}
  xc: PBE

System changes: positions, numbers, cell, pbc, initial_charges, initial_magmoms 

Initialize ...

species:
  Rh:
    name: Rhodium
    id: 4e1d209aee696a641de1ffa1459b299f
    Z: 45.0
    valence: 15
    core: 30
    charge: 0.0
    file: /apps/Common/software/GPAW-setups/0.9.20000/Rh.PBE.gz
    compensation charges: {type: gauss,
                           rc: 0.38,
                           lmax: 2}
    cutoffs: {filter: 2.48,
              core: 2.35}
    valence states:
      #              energy  rcut
      - 5s(1.00)    -4.297   1.270
      - 4p(6.00)   -50.429   1.381
      - 5p(0.00)    -0.852   1.381
      - 4d(8.00)    -5.942   1.244
      -  s          22.915   1.270
      -  d          21.270   1.244
  
    # Using partial waves for Rh as LCAO basis

  O:
    name: Oxygen
    id: 32ecd46bf208036f09c70b0ec9a88b78
    Z: 8.0
    valence: 6
    core: 2
    charge: 0.0
    file: /apps/Common/software/GPAW-setups/0.9.20000/O.PBE.gz
    compensation charges: {type: gauss,
                           rc: 0.21,
                           lmax: 2}
    cutoffs: {filter: 1.17,
              core: 0.83}
    valence states:
      #              energy  rcut
      - 2s(2.00)   -23.961   0.688
      - 2p(4.00)    -9.029   0.598
      -  s           3.251   0.688
      -  p          18.182   0.598
      -  d           0.000   0.619
  
    # Using partial waves for O as LCAO basis

  C:
    name: Carbon
    id: 4aa54d4b901d75f77cc0ea3eec22967b
    Z: 6.0
    valence: 4
    core: 2
    charge: 0.0
    file: /apps/Common/software/GPAW-setups/0.9.20000/C.PBE.gz
    compensation charges: {type: gauss,
                           rc: 0.20,
                           lmax: 2}
    cutoffs: {filter: 1.14,
              core: 1.14}
    valence states:
      #              energy  rcut
      - 2s(2.00)   -13.751   0.635
      - 2p(2.00)    -5.284   0.635
      -  s          13.461   0.635
      -  p          21.927   0.635
      -  d           0.000   0.635
  
    # Using partial waves for C as LCAO basis

Reference energy: -3516703.949422  # eV

Spin-paired calculation

Convergence criteria:
 Maximum [total energy] change in last 3 cyles: 0.0005 eV / electron
 Maximum integral of absolute [dens]ity change: 0.0001 electrons / valence electron
 Maximum integral of absolute [eigenst]ate change: 4e-08 eV^2 / valence electron
 Maximum number of scf [iter]ations: 333
 (Square brackets indicate name in SCF output, whereas a 'c' in
 the SCF output indicates the quantity has converged.)

Symmetries present (total): 1

  ( 1  0  0)
  ( 0  1  0)
  ( 0  0  1)

16 k-points: 4 x 4 x 1 Monkhorst-Pack grid
8 k-points in the irreducible part of the Brillouin zone
       k-points in crystal coordinates                weights
   0:     0.12500000   -0.37500000    0.00000000          2/16
   1:     0.12500000   -0.12500000    0.00000000          2/16
   2:     0.12500000    0.12500000    0.00000000          2/16
   3:     0.12500000    0.37500000    0.00000000          2/16
   4:     0.37500000   -0.37500000    0.00000000          2/16
   5:     0.37500000   -0.12500000    0.00000000          2/16
   6:     0.37500000    0.12500000    0.00000000          2/16
   7:     0.37500000    0.37500000    0.00000000          2/16

Wave functions: Plane wave expansion
  Cutoff energy: 450.000 eV
  Number of coefficients (min, max): 20454, 20528
  Pulay-stress correction: 0.000000 eV/Ang^3 (de/decut=0.000000)
  Using FFTW library
  ScaLapack parameters: grid=1x1, blocksize=None
  Wavefunction extrapolation:
    Improved wavefunction reuse through dual PAW basis 

Occupation numbers: Fermi-Dirac:
  width: 0.1000  # eV
 

Eigensolver
   Davidson(niter=2) 

Densities:
  Coarse grid: 40*40*81 grid
  Fine grid: 80*80*162 grid
  Total Charge: 0.000000 

Density mixing:
  Method: separate
  Backend: pulay
  Linear mixing parameter: 0.05
  old densities: 5
  Damping of long wavelength oscillations: 50 

Hamiltonian:
  XC and Coulomb potentials evaluated on a 80*80*162 grid
  Using the PBE Exchange-Correlation functional
  External potential:
    NoExternalPotential
 

XC parameters: PBE with 2 nearest neighbor stencil

Memory estimate:
  Process memory now: 926.60 MiB
  Calculator: 220.99 MiB
    Density: 34.22 MiB
      Arrays: 12.87 MiB
      Localized functions: 16.35 MiB
      Mixer: 5.00 MiB
    Hamiltonian: 8.85 MiB
      Arrays: 8.41 MiB
      XC: 0.00 MiB
      Poisson: 0.00 MiB
      vbar: 0.44 MiB
    Wavefunctions: 177.92 MiB
      Arrays psit_nG: 79.25 MiB
      Eigensolver: 90.59 MiB
      Projections: 0.99 MiB
      Projectors: 1.96 MiB
      PW-descriptor: 5.14 MiB

Total number of cores used: 16
Parallelization over k-points: 8
Domain decomposition: 1 x 1 x 2

Number of atoms: 29
Number of atomic orbitals: 332
Number of bands in calculation: 253
Number of valence electrons: 415
Bands to converge: occupied

... initialized

Initializing position-dependent things.

Density initialized from atomic densities
Creating initial wave functions:
  253 bands from LCAO basis set

                                           
                                           
                                           
                                           
                                           
                                           
                                           
          O                                
                Rh     Rh     Rh           
          C                                
            Rh   RRh    RRh    Rh          
       Rh    RRh   RRh    Rh               
                                           
        Rh     Rh   RRh    Rh    Rh        
                                           
                Rh    Rh     Rh            
           Rh    Rh     Rh                 
                                           
                                           
                                           
                                           

Positions:
   0 Rh     1.357645    0.783837    6.000000    ( 0.0000,  0.0000,  0.0000)
   1 Rh     4.072935    0.783837    6.000000    ( 0.0000,  0.0000,  0.0000)
   2 Rh     6.788225    0.783837    6.000000    ( 0.0000,  0.0000,  0.0000)
   3 Rh     2.715290    3.135347    6.000000    ( 0.0000,  0.0000,  0.0000)
   4 Rh     5.430580    3.135347    6.000000    ( 0.0000,  0.0000,  0.0000)
   5 Rh     8.145870    3.135347    6.000000    ( 0.0000,  0.0000,  0.0000)
   6 Rh     4.072935    5.486857    6.000000    ( 0.0000,  0.0000,  0.0000)
   7 Rh     6.788225    5.486857    6.000000    ( 0.0000,  0.0000,  0.0000)
   8 Rh     9.503515    5.486857    6.000000    ( 0.0000,  0.0000,  0.0000)
   9 Rh    -0.000000    1.567673    8.217025    ( 0.0000,  0.0000,  0.0000)
  10 Rh     2.715290    1.567673    8.217025    ( 0.0000,  0.0000,  0.0000)
  11 Rh     5.430580    1.567673    8.217025    ( 0.0000,  0.0000,  0.0000)
  12 Rh     1.357645    3.919184    8.217025    ( 0.0000,  0.0000,  0.0000)
  13 Rh     4.072935    3.919184    8.217025    ( 0.0000,  0.0000,  0.0000)
  14 Rh     6.788225    3.919184    8.217025    ( 0.0000,  0.0000,  0.0000)
  15 Rh     2.715290    6.270694    8.217025    ( 0.0000,  0.0000,  0.0000)
  16 Rh     5.430580    6.270694    8.217025    ( 0.0000,  0.0000,  0.0000)
  17 Rh     8.145870    6.270694    8.217025    ( 0.0000,  0.0000,  0.0000)
  18 Rh     0.000000    0.000000   10.434050    ( 0.0000,  0.0000,  0.0000)
  19 Rh     2.715290    0.000000   10.434050    ( 0.0000,  0.0000,  0.0000)
  20 Rh     5.430580    0.000000   10.434050    ( 0.0000,  0.0000,  0.0000)
  21 Rh     1.357645    2.351510   10.434050    ( 0.0000,  0.0000,  0.0000)
  22 Rh     4.072935    2.351510   10.434050    ( 0.0000,  0.0000,  0.0000)
  23 Rh     6.788225    2.351510   10.434050    ( 0.0000,  0.0000,  0.0000)
  24 Rh     2.715290    4.703020   10.434050    ( 0.0000,  0.0000,  0.0000)
  25 Rh     5.430580    4.703020   10.434050    ( 0.0000,  0.0000,  0.0000)
  26 Rh     8.145870    4.703020   10.434050    ( 0.0000,  0.0000,  0.0000)
  27 O      1.357645    0.000000   13.584390    ( 0.0000,  0.0000,  0.0000)
  28 C      1.357645    0.000000   12.434050    ( 0.0000,  0.0000,  0.0000)

Unit cell:
           periodic     x           y           z      points  spacing
  1. axis:    yes    8.145870    0.000000    0.000000    40     0.1764
  2. axis:    yes    4.072935    7.054530    0.000000    40     0.1764
  3. axis:    no     0.000000    0.000000   16.434050    81     0.2029

  Lengths:   8.145870   8.145870  16.434050
  Angles:   90.000000  90.000000  60.000000

Effective grid spacing dv^(1/3) = 0.1939

     iter     time        total  log10-change:
                         energy  eigst   dens
iter:   1 14:39:32  -211.600296
iter:   2 14:39:39  -209.096480  -1.32  -1.35
iter:   3 14:39:46  -209.891825  -1.52  -1.37
iter:   4 14:39:54  -200.578596  -1.21  -1.37
iter:   5 14:40:01  -198.323161  -2.19  -1.67
iter:   6 14:40:09  -198.227497  -2.34  -1.93
iter:   7 14:40:16  -198.074568  -2.60  -2.09
iter:   8 14:40:24  -198.035075c -3.18  -2.18
iter:   9 14:40:31  -197.944126c -3.15  -2.24
iter:  10 14:40:39  -197.987277c -3.27  -2.36
iter:  11 14:40:46  -197.903853c -3.17  -2.35
iter:  12 14:40:54  -197.886816c -3.83  -2.59
iter:  13 14:41:01  -197.881166c -3.85  -2.87
iter:  14 14:41:09  -197.880982c -4.83  -3.08
iter:  15 14:41:16  -197.881244c -4.45  -3.13
iter:  16 14:41:24  -197.880614c -5.03  -3.34
iter:  17 14:41:31  -197.880315c -5.15  -3.52
iter:  18 14:41:39  -197.881077c -5.42  -3.49
iter:  19 14:41:46  -197.880322c -5.88  -3.50
iter:  20 14:41:54  -197.880520c -5.83  -3.66
iter:  21 14:42:01  -197.880622c -6.14  -3.80
iter:  22 14:42:09  -197.880582c -6.56  -3.83
iter:  23 14:42:16  -197.880547c -6.67  -3.89
iter:  24 14:42:24  -197.880489c -6.24  -3.97
iter:  25 14:42:31  -197.880514c -6.63  -4.15c
iter:  26 14:42:39  -197.880447c -7.09  -4.19c
iter:  27 14:42:46  -197.880442c -7.66c -4.52c

Converged after 27 iterations.

Dipole moment: (-1.192179, -0.136880, -0.087120) |e|*Ang

Energy contributions relative to reference atoms: (reference = -3516703.949422)

Kinetic:       -178.821291
Potential:      +95.066094
External:        +0.000000
XC:            -111.136738
Entropy (-ST):   -1.710257
Local:           -2.133380
--------------------------
Free energy:   -198.735571
Extrapolated:  -197.880442

Showing only first 2 kpts
 Kpt  Band  Eigenvalues  Occupancy
  0   205      1.65342    1.48840
  0   206      1.70084    1.28845
  0   207      1.74432    1.07928
  0   208      1.83206    0.65544

  1   205      1.68271    1.36922
  1   206      1.75863    1.00790
  1   207      1.77879    0.90740
  1   208      1.78686    0.86756


Fermi level: 1.76021

No gap

Forces in eV/Ang:
  0 Rh    0.00216   -0.01676    0.46278
  1 Rh   -0.01311   -0.03226    0.46036
  2 Rh    0.01617   -0.03075    0.45740
  3 Rh   -0.03980    0.07156    0.37875
  4 Rh    0.00072    0.02084    0.46034
  5 Rh    0.04148    0.07069    0.37656
  6 Rh   -0.00698    0.00176    0.42625
  7 Rh    0.01127    0.00105    0.42035
  8 Rh    0.00815   -0.08062    0.30901
  9 Rh   -0.03199   -0.02747   -0.08084
 10 Rh    0.03470   -0.02760   -0.08878
 11 Rh    0.00244   -0.01337    0.01288
 12 Rh   -0.00387   -0.01231    0.06367
 13 Rh    0.01962   -0.01224    0.05169
 14 Rh   -0.01852   -0.01350    0.04934
 15 Rh    0.04992    0.08820    0.12557
 16 Rh   -0.00227    0.01457   -0.23329
 17 Rh   -0.05000    0.08358    0.12199
 18 Rh    0.36907   -0.05583    0.84424
 19 Rh   -0.37376   -0.04821    0.85321
 20 Rh   -0.00685    0.02210   -0.50901
 21 Rh    0.00446    0.30807   -0.47022
 22 Rh    0.06393    0.06281   -0.48393
 23 Rh   -0.06664    0.06035   -0.49434
 24 Rh   -0.07862   -0.07955   -0.48436
 25 Rh   -0.00771   -0.26958   -0.45694
 26 Rh    0.07789   -0.07582   -0.48335
 27 O     0.00293    0.00275    0.87852
 28 C    -0.00329   -0.01192   -2.95498

System changes: positions 

Initializing position-dependent things.

Density initialized from wave functions
                                           
                                           
                                           
                                           
                                           
                                           
                                           
          O                                
                Rh     Rh     Rh           
          C                                
            Rh   RRh    RRh    Rh          
       Rh    RRh   RRh    Rh               
                                           
        Rh     Rh   RRh    Rh    Rh        
                                           
                Rh    Rh     Rh            
           Rh    Rh     Rh                 
                                           
                                           
                                           
                                           

Positions:
   0 Rh     1.357645    0.783837    6.000000    ( 0.0000,  0.0000,  0.0000)
   1 Rh     4.072935    0.783837    6.000000    ( 0.0000,  0.0000,  0.0000)
   2 Rh     6.788225    0.783837    6.000000    ( 0.0000,  0.0000,  0.0000)
   3 Rh     2.715290    3.135347    6.000000    ( 0.0000,  0.0000,  0.0000)
   4 Rh     5.430580    3.135347    6.000000    ( 0.0000,  0.0000,  0.0000)
   5 Rh     8.145870    3.135347    6.000000    ( 0.0000,  0.0000,  0.0000)
   6 Rh     4.072935    5.486857    6.000000    ( 0.0000,  0.0000,  0.0000)
   7 Rh     6.788225    5.486857    6.000000    ( 0.0000,  0.0000,  0.0000)
   8 Rh     9.503515    5.486857    6.000000    ( 0.0000,  0.0000,  0.0000)
   9 Rh    -0.000000    1.567673    8.217025    ( 0.0000,  0.0000,  0.0000)
  10 Rh     2.715290    1.567673    8.217025    ( 0.0000,  0.0000,  0.0000)
  11 Rh     5.430580    1.567673    8.217025    ( 0.0000,  0.0000,  0.0000)
  12 Rh     1.357645    3.919184    8.217025    ( 0.0000,  0.0000,  0.0000)
  13 Rh     4.072935    3.919184    8.217025    ( 0.0000,  0.0000,  0.0000)
  14 Rh     6.788225    3.919184    8.217025    ( 0.0000,  0.0000,  0.0000)
  15 Rh     2.715290    6.270694    8.217025    ( 0.0000,  0.0000,  0.0000)
  16 Rh     5.430580    6.270694    8.217025    ( 0.0000,  0.0000,  0.0000)
  17 Rh     8.145870    6.270694    8.217025    ( 0.0000,  0.0000,  0.0000)
  18 Rh     0.000000    0.000000   10.434050    ( 0.0000,  0.0000,  0.0000)
  19 Rh     2.715290    0.000000   10.434050    ( 0.0000,  0.0000,  0.0000)
  20 Rh     5.430580    0.000000   10.434050    ( 0.0000,  0.0000,  0.0000)
  21 Rh     1.357645    2.351510   10.434050    ( 0.0000,  0.0000,  0.0000)
  22 Rh     4.072935    2.351510   10.434050    ( 0.0000,  0.0000,  0.0000)
  23 Rh     6.788225    2.351510   10.434050    ( 0.0000,  0.0000,  0.0000)
  24 Rh     2.715290    4.703020   10.434050    ( 0.0000,  0.0000,  0.0000)
  25 Rh     5.430580    4.703020   10.434050    ( 0.0000,  0.0000,  0.0000)
  26 Rh     8.145870    4.703020   10.434050    ( 0.0000,  0.0000,  0.0000)
  27 O      1.357645    0.000000   13.584390    ( 0.0000,  0.0000,  0.0000)
  28 C      1.357199   -0.001613   12.034054    ( 0.0000,  0.0000,  0.0000)

Unit cell:
           periodic     x           y           z      points  spacing
  1. axis:    yes    8.145870    0.000000    0.000000    40     0.1764
  2. axis:    yes    4.072935    7.054530    0.000000    40     0.1764
  3. axis:    no     0.000000    0.000000   16.434050    81     0.2029

  Lengths:   8.145870   8.145870  16.434050
  Angles:   90.000000  90.000000  60.000000

Effective grid spacing dv^(1/3) = 0.1939

     iter     time        total  log10-change:
                         energy  eigst   dens
iter:   1 14:42:58  -217.661632  -0.39
iter:   2 14:43:06  -230.900121  -1.24  -1.53
iter:   3 14:43:13  -209.451569  -1.44  -1.28
iter:   4 14:43:21  -200.350457  -1.73  -1.55
iter:   5 14:43:28  -196.941352  -2.23  -1.73
iter:   6 14:43:36  -196.692965  -2.82  -2.13
iter:   7 14:43:43  -196.257891  -2.23  -2.16
iter:   8 14:43:50  -196.145239  -3.24  -2.38
iter:   9 14:43:58  -196.256841c -3.43  -2.49
iter:  10 14:44:05  -196.063852c -3.34  -2.20
iter:  11 14:44:13  -195.855179  -3.10  -2.38
iter:  12 14:44:20  -195.852557  -4.19  -2.94
iter:  13 14:44:28  -195.851864c -5.22  -3.08
iter:  14 14:44:35  -195.852087c -5.16  -3.11
iter:  15 14:44:43  -195.853531c -5.06  -3.20
iter:  16 14:44:50  -195.861952c -4.86  -3.28
iter:  17 14:44:57  -195.854671c -5.08  -3.01
iter:  18 14:45:05  -195.854056c -6.09  -3.34
iter:  19 14:45:12  -195.853711c -5.45  -3.50
iter:  20 14:45:20  -195.853621c -5.88  -3.79
iter:  21 14:45:27  -195.853633c -6.42  -3.99
iter:  22 14:45:35  -195.853692c -6.97  -4.07c
iter:  23 14:45:42  -195.853707c -7.12  -4.11c
iter:  24 14:45:50  -195.853681c -6.73  -3.99
iter:  25 14:45:57  -195.853696c -6.58  -4.22c
iter:  26 14:46:04  -195.853670c -7.54c -4.43c

Converged after 26 iterations.

Dipole moment: (-0.577608, -0.058011, -0.916205) |e|*Ang

Energy contributions relative to reference atoms: (reference = -3516703.949422)

Kinetic:       -195.436767
Potential:     +109.695979
External:        +0.000000
XC:            -107.136493
Entropy (-ST):   -1.706656
Local:           -2.123060
--------------------------
Free energy:   -196.706998
Extrapolated:  -195.853670

Showing only first 2 kpts
 Kpt  Band  Eigenvalues  Occupancy
  0   205      1.32174    1.50300
  0   206      1.36954    1.30436
  0   207      1.44627    0.93078
  0   208      1.52254    0.57757

  1   205      1.38004    1.25601
  1   206      1.42890    1.01752
  1   207      1.45152    0.90470
  1   208      1.46292    0.84859


Fermi level: 1.43241

No gap

Forces in eV/Ang:
  0 Rh    0.00042    0.00641    0.43817
  1 Rh   -0.02248   -0.03740    0.46098
  2 Rh    0.02579   -0.03701    0.46105
  3 Rh   -0.04104    0.08707    0.36985
  4 Rh    0.00096    0.02392    0.46510
  5 Rh    0.04174    0.08516    0.36411
  6 Rh   -0.02896    0.00265    0.43938
  7 Rh    0.03224    0.00120    0.43286
  8 Rh    0.00690   -0.15462    0.19369
  9 Rh   -0.05469   -0.04120   -0.12734
 10 Rh    0.05732   -0.04262   -0.13742
 11 Rh    0.00328   -0.03318   -0.00292
 12 Rh   -0.00342    0.02043    0.11376
 13 Rh    0.01912    0.00384    0.04943
 14 Rh   -0.01807    0.00249    0.04700
 15 Rh   -0.05062    0.01790   -0.08094
 16 Rh   -0.00081   -0.02491   -0.37350
 17 Rh    0.05011    0.01188   -0.08065
 18 Rh    0.45846    0.04339    1.15519
 19 Rh   -0.46287    0.05780    1.16869
 20 Rh   -0.00922    0.02095   -0.50325
 21 Rh    0.00631    0.29114   -0.29408
 22 Rh    0.08479    0.08387   -0.49006
 23 Rh   -0.08641    0.08487   -0.50025
 24 Rh   -0.10175   -0.08460   -0.51584
 25 Rh   -0.00980   -0.28569   -0.26050
 26 Rh    0.10041   -0.07924   -0.51432
 27 O     0.00005   -0.01384   -9.43006
 28 C     0.00434   -0.00945    6.97764

System changes: positions 

Initializing position-dependent things.

Density initialized from wave functions
                                           
                                           
                                           
                                           
                                           
                                           
                                           
          O                                
                Rh     Rh     Rh           
          C                                
            Rh   RRh    RRh    Rh          
       Rh    RRh   RRh    Rh               
                                           
        Rh     Rh   RRh    Rh    Rh        
                                           
                Rh    Rh     Rh            
           Rh    Rh     Rh                 
                                           
                                           
                                           
                                           

Positions:
   0 Rh     1.357645    0.783837    6.000000    ( 0.0000,  0.0000,  0.0000)
   1 Rh     4.072935    0.783837    6.000000    ( 0.0000,  0.0000,  0.0000)
   2 Rh     6.788225    0.783837    6.000000    ( 0.0000,  0.0000,  0.0000)
   3 Rh     2.715290    3.135347    6.000000    ( 0.0000,  0.0000,  0.0000)
   4 Rh     5.430580    3.135347    6.000000    ( 0.0000,  0.0000,  0.0000)
   5 Rh     8.145870    3.135347    6.000000    ( 0.0000,  0.0000,  0.0000)
   6 Rh     4.072935    5.486857    6.000000    ( 0.0000,  0.0000,  0.0000)
   7 Rh     6.788225    5.486857    6.000000    ( 0.0000,  0.0000,  0.0000)
   8 Rh     9.503515    5.486857    6.000000    ( 0.0000,  0.0000,  0.0000)
   9 Rh    -0.000000    1.567673    8.217025    ( 0.0000,  0.0000,  0.0000)
  10 Rh     2.715290    1.567673    8.217025    ( 0.0000,  0.0000,  0.0000)
  11 Rh     5.430580    1.567673    8.217025    ( 0.0000,  0.0000,  0.0000)
  12 Rh     1.357645    3.919184    8.217025    ( 0.0000,  0.0000,  0.0000)
  13 Rh     4.072935    3.919184    8.217025    ( 0.0000,  0.0000,  0.0000)
  14 Rh     6.788225    3.919184    8.217025    ( 0.0000,  0.0000,  0.0000)
  15 Rh     2.715290    6.270694    8.217025    ( 0.0000,  0.0000,  0.0000)
  16 Rh     5.430580    6.270694    8.217025    ( 0.0000,  0.0000,  0.0000)
  17 Rh     8.145870    6.270694    8.217025    ( 0.0000,  0.0000,  0.0000)
  18 Rh     0.000000    0.000000   10.434050    ( 0.0000,  0.0000,  0.0000)
  19 Rh     2.715290    0.000000   10.434050    ( 0.0000,  0.0000,  0.0000)
  20 Rh     5.430580    0.000000   10.434050    ( 0.0000,  0.0000,  0.0000)
  21 Rh     1.357645    2.351510   10.434050    ( 0.0000,  0.0000,  0.0000)
  22 Rh     4.072935    2.351510   10.434050    ( 0.0000,  0.0000,  0.0000)
  23 Rh     6.788225    2.351510   10.434050    ( 0.0000,  0.0000,  0.0000)
  24 Rh     2.715290    4.703020   10.434050    ( 0.0000,  0.0000,  0.0000)
  25 Rh     5.430580    4.703020   10.434050    ( 0.0000,  0.0000,  0.0000)
  26 Rh     8.145870    4.703020   10.434050    ( 0.0000,  0.0000,  0.0000)
  27 O      1.357645    0.000000   13.584390    ( 0.0000,  0.0000,  0.0000)
  28 C      1.357570   -0.000385   12.380999    ( 0.0000,  0.0000,  0.0000)

Unit cell:
           periodic     x           y           z      points  spacing
  1. axis:    yes    8.145870    0.000000    0.000000    40     0.1764
  2. axis:    yes    4.072935    7.054530    0.000000    40     0.1764
  3. axis:    no     0.000000    0.000000   16.434050    81     0.2029

  Lengths:   8.145870   8.145870  16.434050
  Angles:   90.000000  90.000000  60.000000

Effective grid spacing dv^(1/3) = 0.1939

     iter     time        total  log10-change:
                         energy  eigst   dens
iter:   1 14:46:16  -203.016844  -1.35
iter:   2 14:46:24  -201.784392  -2.24  -1.91
iter:   3 14:46:31  -210.578689  -1.90  -1.83
iter:   4 14:46:39  -198.953400  -2.22  -1.50
iter:   5 14:46:46  -198.565906  -3.01  -2.18
iter:   6 14:46:54  -198.201414  -2.91  -2.28
iter:   7 14:47:01  -198.052398  -3.33  -2.41
iter:   8 14:47:09  -197.952690  -3.05  -2.53
iter:   9 14:47:16  -197.943636c -3.99  -2.82
iter:  10 14:47:24  -197.983192c -4.09  -2.84
iter:  11 14:47:32  -197.924149c -4.07  -2.59
iter:  12 14:47:39  -197.922169c -4.63  -3.12
iter:  13 14:47:46  -197.921471c -5.33  -3.20
iter:  14 14:47:54  -197.920901c -5.18  -3.28
iter:  15 14:48:01  -197.920959c -5.06  -3.43
iter:  16 14:48:09  -197.921185c -5.87  -3.64
iter:  17 14:48:17  -197.921328c -6.06  -3.63
iter:  18 14:48:24  -197.920979c -5.86  -3.53
iter:  19 14:48:31  -197.921073c -5.95  -3.90
iter:  20 14:48:39  -197.921076c -6.82  -4.05c
iter:  21 14:48:46  -197.921066c -6.56  -4.04c
iter:  22 14:48:54  -197.921057c -6.78  -4.18c
iter:  23 14:49:01  -197.921037c -7.64c -4.41c

Converged after 23 iterations.

Dipole moment: (-1.095056, -0.117031, -0.222477) |e|*Ang

Energy contributions relative to reference atoms: (reference = -3516703.949422)

Kinetic:       -184.048037
Potential:      +99.294924
External:        +0.000000
XC:            -110.149280
Entropy (-ST):   -1.707086
Local:           -2.165100
--------------------------
Free energy:   -198.774580
Extrapolated:  -197.921037

Showing only first 2 kpts
 Kpt  Band  Eigenvalues  Occupancy
  0   205      1.59982    1.49910
  0   206      1.64962    1.29050
  0   207      1.70162    1.03906
  0   208      1.77957    0.66305

  1   205      1.63527    1.35475
  1   206      1.70731    1.01065
  1   207      1.72810    0.90698
  1   208      1.73686    0.86377


Fermi level: 1.70944

No gap

Forces in eV/Ang:
  0 Rh    0.00207   -0.01457    0.46255
  1 Rh   -0.01638   -0.03498    0.46411
  2 Rh    0.01908   -0.03359    0.46162
  3 Rh   -0.04185    0.07601    0.37725
  4 Rh    0.00070    0.02328    0.46616
  5 Rh    0.04325    0.07517    0.37468
  6 Rh   -0.00980    0.00266    0.42851
  7 Rh    0.01412    0.00206    0.42229
  8 Rh    0.00807   -0.09266    0.29242
  9 Rh   -0.03351   -0.03123   -0.08080
 10 Rh    0.03652   -0.03167   -0.08953
 11 Rh    0.00232   -0.01623    0.01493
 12 Rh   -0.00387   -0.00724    0.07896
 13 Rh    0.02078   -0.01024    0.05674
 14 Rh   -0.01963   -0.01126    0.05437
 15 Rh    0.03877    0.08210    0.10984
 16 Rh   -0.00204    0.01398   -0.23670
 17 Rh   -0.03902    0.07753    0.10647
 18 Rh    0.44100   -0.05086    0.98211
 19 Rh   -0.44498   -0.04162    0.99189
 20 Rh   -0.00756    0.02307   -0.51990
 21 Rh    0.00515    0.29937   -0.44572
 22 Rh    0.06271    0.06269   -0.49330
 23 Rh   -0.06529    0.06074   -0.50419
 24 Rh   -0.07825   -0.07828   -0.49626
 25 Rh   -0.00821   -0.26102   -0.42740
 26 Rh    0.07754   -0.07420   -0.49503
 27 O     0.00265    0.00022   -3.48685
 28 C    -0.00276   -0.00864    1.16039

System changes: positions 

Initializing position-dependent things.

Density initialized from wave functions
                                           
                                           
                                           
                                           
                                           
                                           
                                           
          O                                
                Rh     Rh     Rh           
          C                                
            Rh   RRh    RRh    Rh          
       Rh    RRh   RRh    Rh               
                                           
        Rh     Rh   RRh    Rh    Rh        
                                           
                Rh    Rh     Rh            
           Rh    Rh     Rh                 
                                           
                                           
                                           
                                           

Positions:
   0 Rh     1.357645    0.783837    6.000000    ( 0.0000,  0.0000,  0.0000)
   1 Rh     4.072935    0.783837    6.000000    ( 0.0000,  0.0000,  0.0000)
   2 Rh     6.788225    0.783837    6.000000    ( 0.0000,  0.0000,  0.0000)
   3 Rh     2.715290    3.135347    6.000000    ( 0.0000,  0.0000,  0.0000)
   4 Rh     5.430580    3.135347    6.000000    ( 0.0000,  0.0000,  0.0000)
   5 Rh     8.145870    3.135347    6.000000    ( 0.0000,  0.0000,  0.0000)
   6 Rh     4.072935    5.486857    6.000000    ( 0.0000,  0.0000,  0.0000)
   7 Rh     6.788225    5.486857    6.000000    ( 0.0000,  0.0000,  0.0000)
   8 Rh     9.503515    5.486857    6.000000    ( 0.0000,  0.0000,  0.0000)
   9 Rh    -0.000000    1.567673    8.217025    ( 0.0000,  0.0000,  0.0000)
  10 Rh     2.715290    1.567673    8.217025    ( 0.0000,  0.0000,  0.0000)
  11 Rh     5.430580    1.567673    8.217025    ( 0.0000,  0.0000,  0.0000)
  12 Rh     1.357645    3.919184    8.217025    ( 0.0000,  0.0000,  0.0000)
  13 Rh     4.072935    3.919184    8.217025    ( 0.0000,  0.0000,  0.0000)
  14 Rh     6.788225    3.919184    8.217025    ( 0.0000,  0.0000,  0.0000)
  15 Rh     2.715290    6.270694    8.217025    ( 0.0000,  0.0000,  0.0000)
  16 Rh     5.430580    6.270694    8.217025    ( 0.0000,  0.0000,  0.0000)
  17 Rh     8.145870    6.270694    8.217025    ( 0.0000,  0.0000,  0.0000)
  18 Rh     0.000000    0.000000   10.434050    ( 0.0000,  0.0000,  0.0000)
  19 Rh     2.715290    0.000000   10.434050    ( 0.0000,  0.0000,  0.0000)
  20 Rh     5.430580    0.000000   10.434050    ( 0.0000,  0.0000,  0.0000)
  21 Rh     1.357645    2.351510   10.434050    ( 0.0000,  0.0000,  0.0000)
  22 Rh     4.072935    2.351510   10.434050    ( 0.0000,  0.0000,  0.0000)
  23 Rh     6.788225    2.351510   10.434050    ( 0.0000,  0.0000,  0.0000)
  24 Rh     2.715290    4.703020   10.434050    ( 0.0000,  0.0000,  0.0000)
  25 Rh     5.430580    4.703020   10.434050    ( 0.0000,  0.0000,  0.0000)
  26 Rh     8.145870    4.703020   10.434050    ( 0.0000,  0.0000,  0.0000)
  27 O      1.357645    0.000000   13.584390    ( 0.0000,  0.0000,  0.0000)
  28 C      1.357441   -0.000778   12.397384    ( 0.0000,  0.0000,  0.0000)

Unit cell:
           periodic     x           y           z      points  spacing
  1. axis:    yes    8.145870    0.000000    0.000000    40     0.1764
  2. axis:    yes    4.072935    7.054530    0.000000    40     0.1764
  3. axis:    no     0.000000    0.000000   16.434050    81     0.2029

  Lengths:   8.145870   8.145870  16.434050
  Angles:   90.000000  90.000000  60.000000

Effective grid spacing dv^(1/3) = 0.1939

     iter     time        total  log10-change:
                         energy  eigst   dens
iter:   1 14:49:13  -197.976883  -3.57
iter:   2 14:49:21  -198.004423  -3.99  -2.85
iter:   3 14:49:28  -197.965688c -4.20  -2.61
iter:   4 14:49:36  -197.935233c -4.42  -2.80
iter:   5 14:49:43  -197.933138c -4.79  -3.40
iter:   6 14:49:51  -197.932261c -5.33  -3.48
iter:   7 14:49:58  -197.931761c -5.27  -3.70
iter:   8 14:50:06  -197.931754c -6.01  -3.84
iter:   9 14:50:13  -197.931609c -6.19  -3.88
iter:  10 14:50:21  -197.931677c -6.30  -4.12c
iter:  11 14:50:28  -197.931510c -6.40  -3.81
iter:  12 14:50:36  -197.931489c -7.64c -4.30c

Converged after 12 iterations.

Dipole moment: (-1.105427, -0.093966, -0.183665) |e|*Ang

Energy contributions relative to reference atoms: (reference = -3516703.949422)

Kinetic:       -182.605355
Potential:      +98.085818
External:        +0.000000
XC:            -110.447318
Entropy (-ST):   -1.708062
Local:           -2.110603
--------------------------
Free energy:   -198.785520
Extrapolated:  -197.931489

Showing only first 2 kpts
 Kpt  Band  Eigenvalues  Occupancy
  0   205      1.61644    1.49597
  0   206      1.66557    1.28974
  0   207      1.71501    1.05103
  0   208      1.79569    0.66157

  1   205      1.64995    1.35958
  1   206      1.72325    1.00990
  1   207      1.74392    0.90682
  1   208      1.75243    0.86484


Fermi level: 1.72523

No gap

Forces in eV/Ang:
  0 Rh    0.00211   -0.01482    0.46856
  1 Rh   -0.01532   -0.03421    0.46812
  2 Rh    0.01803   -0.03276    0.46558
  3 Rh   -0.04079    0.07461    0.38234
  4 Rh    0.00071    0.02261    0.46869
  5 Rh    0.04233    0.07377    0.37997
  6 Rh   -0.00923    0.00209    0.43332
  7 Rh    0.01353    0.00152    0.42718
  8 Rh    0.00808   -0.08887    0.30177
  9 Rh   -0.03497   -0.02882   -0.08467
 10 Rh    0.03791   -0.02921   -0.09315
 11 Rh    0.00231   -0.01500    0.01272
 12 Rh   -0.00385   -0.00828    0.07212
 13 Rh    0.02025   -0.01153    0.05348
 14 Rh   -0.01909   -0.01259    0.05113
 15 Rh    0.04179    0.08449    0.11336
 16 Rh   -0.00209    0.01221   -0.24225
 17 Rh   -0.04187    0.07991    0.10978
 18 Rh    0.43662   -0.05310    0.94724
 19 Rh   -0.44042   -0.04423    0.95609
 20 Rh   -0.00739    0.02311   -0.50979
 21 Rh    0.00503    0.29819   -0.45413
 22 Rh    0.06257    0.06156   -0.48499
 23 Rh   -0.06531    0.05954   -0.49585
 24 Rh   -0.07772   -0.07776   -0.48748
 25 Rh   -0.00806   -0.25984   -0.43679
 26 Rh    0.07702   -0.07376   -0.48636
 27 O     0.00252   -0.00010   -2.33256
 28 C    -0.00275   -0.00722    0.09424

System changes: positions 

Initializing position-dependent things.

Density initialized from wave functions
                                           
                                           
                                           
                                           
                                           
                                           
                                           
          O                                
                Rh     Rh     Rh           
          C                                
            Rh   RRh    RRh    Rh          
       Rh    RRh   RRh    Rh               
                                           
        Rh     Rh   RRh    Rh    Rh        
                                           
                Rh    Rh     Rh            
           Rh    Rh     Rh                 
                                           
                                           
                                           
                                           

Positions:
   0 Rh     1.357645    0.783837    6.000000    ( 0.0000,  0.0000,  0.0000)
   1 Rh     4.072935    0.783837    6.000000    ( 0.0000,  0.0000,  0.0000)
   2 Rh     6.788225    0.783837    6.000000    ( 0.0000,  0.0000,  0.0000)
   3 Rh     2.715290    3.135347    6.000000    ( 0.0000,  0.0000,  0.0000)
   4 Rh     5.430580    3.135347    6.000000    ( 0.0000,  0.0000,  0.0000)
   5 Rh     8.145870    3.135347    6.000000    ( 0.0000,  0.0000,  0.0000)
   6 Rh     4.072935    5.486857    6.000000    ( 0.0000,  0.0000,  0.0000)
   7 Rh     6.788225    5.486857    6.000000    ( 0.0000,  0.0000,  0.0000)
   8 Rh     9.503515    5.486857    6.000000    ( 0.0000,  0.0000,  0.0000)
   9 Rh    -0.000000    1.567673    8.217025    ( 0.0000,  0.0000,  0.0000)
  10 Rh     2.715290    1.567673    8.217025    ( 0.0000,  0.0000,  0.0000)
  11 Rh     5.430580    1.567673    8.217025    ( 0.0000,  0.0000,  0.0000)
  12 Rh     1.357645    3.919184    8.217025    ( 0.0000,  0.0000,  0.0000)
  13 Rh     4.072935    3.919184    8.217025    ( 0.0000,  0.0000,  0.0000)
  14 Rh     6.788225    3.919184    8.217025    ( 0.0000,  0.0000,  0.0000)
  15 Rh     2.715290    6.270694    8.217025    ( 0.0000,  0.0000,  0.0000)
  16 Rh     5.430580    6.270694    8.217025    ( 0.0000,  0.0000,  0.0000)
  17 Rh     8.145870    6.270694    8.217025    ( 0.0000,  0.0000,  0.0000)
  18 Rh     0.000000    0.000000   10.434050    ( 0.0000,  0.0000,  0.0000)
  19 Rh     2.715290    0.000000   10.434050    ( 0.0000,  0.0000,  0.0000)
  20 Rh     5.430580    0.000000   10.434050    ( 0.0000,  0.0000,  0.0000)
  21 Rh     1.357645    2.351510   10.434050    ( 0.0000,  0.0000,  0.0000)
  22 Rh     4.072935    2.351510   10.434050    ( 0.0000,  0.0000,  0.0000)
  23 Rh     6.788225    2.351510   10.434050    ( 0.0000,  0.0000,  0.0000)
  24 Rh     2.715290    4.703020   10.434050    ( 0.0000,  0.0000,  0.0000)
  25 Rh     5.430580    4.703020   10.434050    ( 0.0000,  0.0000,  0.0000)
  26 Rh     8.145870    4.703020   10.434050    ( 0.0000,  0.0000,  0.0000)
  27 O      1.357645    0.000000   13.584390    ( 0.0000,  0.0000,  0.0000)
  28 C      1.357136   -0.001623   12.398469    ( 0.0000,  0.0000,  0.0000)

Unit cell:
           periodic     x           y           z      points  spacing
  1. axis:    yes    8.145870    0.000000    0.000000    40     0.1764
  2. axis:    yes    4.072935    7.054530    0.000000    40     0.1764
  3. axis:    no     0.000000    0.000000   16.434050    81     0.2029

  Lengths:   8.145870   8.145870  16.434050
  Angles:   90.000000  90.000000  60.000000

Effective grid spacing dv^(1/3) = 0.1939

     iter     time        total  log10-change:
                         energy  eigst   dens
iter:   1 14:50:48  -197.935412  -5.22
iter:   2 14:50:55  -197.962040  -4.53  -3.21
iter:   3 14:51:03  -197.931662c -4.90  -2.79
iter:   4 14:51:10  -197.931539c -6.28  -3.98
iter:   5 14:51:18  -197.931561c -6.36  -4.19c
iter:   6 14:51:25  -197.931558c -7.48c -4.53c

Converged after 6 iterations.

Dipole moment: (-1.081027, -0.046497, -0.180060) |e|*Ang

Energy contributions relative to reference atoms: (reference = -3516703.949422)

Kinetic:       -182.139031
Potential:      +97.688055
External:        +0.000000
XC:            -110.481840
Entropy (-ST):   -1.708072
Local:           -2.144706
--------------------------
Free energy:   -198.785594
Extrapolated:  -197.931558

Showing only first 2 kpts
 Kpt  Band  Eigenvalues  Occupancy
  0   205      1.61639    1.49571
  0   206      1.66552    1.28946
  0   207      1.71474    1.05183
  0   208      1.79566    0.66119

  1   205      1.64983    1.35958
  1   206      1.72328    1.00918
  1   207      1.74385    0.90661
  1   208      1.75233    0.86475


Fermi level: 1.72511

No gap

Forces in eV/Ang:
  0 Rh    0.00212   -0.01507    0.45686
  1 Rh   -0.01478   -0.03386    0.45663
  2 Rh    0.01752   -0.03234    0.45398
  3 Rh   -0.04092    0.07433    0.37121
  4 Rh    0.00073    0.02213    0.45771
  5 Rh    0.04247    0.07347    0.36874
  6 Rh   -0.00863    0.00222    0.42215
  7 Rh    0.01302    0.00164    0.41595
  8 Rh    0.00810   -0.08859    0.28987
  9 Rh   -0.03375   -0.03142   -0.08304
 10 Rh    0.03669   -0.03193   -0.09120
 11 Rh    0.00233   -0.01559    0.01227
 12 Rh   -0.00381   -0.01000    0.07355
 13 Rh    0.02139   -0.01099    0.05370
 14 Rh   -0.02028   -0.01201    0.05134
 15 Rh    0.04405    0.08635    0.11489
 16 Rh   -0.00197    0.01474   -0.23969
 17 Rh   -0.04439    0.08180    0.11146
 18 Rh    0.40907   -0.05496    0.93035
 19 Rh   -0.41087   -0.04606    0.93607
 20 Rh   -0.00757    0.02316   -0.51854
 21 Rh    0.00492    0.31546   -0.46264
 22 Rh    0.06674    0.06472   -0.49183
 23 Rh   -0.06946    0.06272   -0.50251
 24 Rh   -0.08176   -0.08090   -0.49428
 25 Rh   -0.00807   -0.27477   -0.44292
 26 Rh    0.08107   -0.07682   -0.49318
 27 O     0.00040   -0.00560   -2.33504
 28 C    -0.00625   -0.01525    0.07095

System changes: positions 

Initializing position-dependent things.

Density initialized from wave functions
                                           
                                           
                                           
                                           
                                           
                                           
                                           
           O                               
                Rh     Rh     Rh           
          C                                
            Rh   RRh    RRh    Rh          
       Rh    RRh   RRh    Rh               
                                           
        Rh     Rh   RRh    Rh     Rh       
                Rh    Rh     Rh            
                                           
           Rh     Rh    Rh                 
                                           
                                           
                                           
                                           

Positions:
   0 Rh     1.357645    0.783837    6.000000    ( 0.0000,  0.0000,  0.0000)
   1 Rh     4.072935    0.783837    6.000000    ( 0.0000,  0.0000,  0.0000)
   2 Rh     6.788225    0.783837    6.000000    ( 0.0000,  0.0000,  0.0000)
   3 Rh     2.715290    3.135347    6.000000    ( 0.0000,  0.0000,  0.0000)
   4 Rh     5.430580    3.135347    6.000000    ( 0.0000,  0.0000,  0.0000)
   5 Rh     8.145870    3.135347    6.000000    ( 0.0000,  0.0000,  0.0000)
   6 Rh     4.072935    5.486857    6.000000    ( 0.0000,  0.0000,  0.0000)
   7 Rh     6.788225    5.486857    6.000000    ( 0.0000,  0.0000,  0.0000)
   8 Rh     9.503515    5.486857    6.000000    ( 0.0000,  0.0000,  0.0000)
   9 Rh    -0.000000    1.567673    8.217025    ( 0.0000,  0.0000,  0.0000)
  10 Rh     2.715290    1.567673    8.217025    ( 0.0000,  0.0000,  0.0000)
  11 Rh     5.430580    1.567673    8.217025    ( 0.0000,  0.0000,  0.0000)
  12 Rh     1.357645    3.919184    8.217025    ( 0.0000,  0.0000,  0.0000)
  13 Rh     4.072935    3.919184    8.217025    ( 0.0000,  0.0000,  0.0000)
  14 Rh     6.788225    3.919184    8.217025    ( 0.0000,  0.0000,  0.0000)
  15 Rh     2.715290    6.270694    8.217025    ( 0.0000,  0.0000,  0.0000)
  16 Rh     5.430580    6.270694    8.217025    ( 0.0000,  0.0000,  0.0000)
  17 Rh     8.145870    6.270694    8.217025    ( 0.0000,  0.0000,  0.0000)
  18 Rh     0.000000    0.000000   10.434050    ( 0.0000,  0.0000,  0.0000)
  19 Rh     2.715290    0.000000   10.434050    ( 0.0000,  0.0000,  0.0000)
  20 Rh     5.430580    0.000000   10.434050    ( 0.0000,  0.0000,  0.0000)
  21 Rh     1.357645    2.351510   10.434050    ( 0.0000,  0.0000,  0.0000)
  22 Rh     4.072935    2.351510   10.434050    ( 0.0000,  0.0000,  0.0000)
  23 Rh     6.788225    2.351510   10.434050    ( 0.0000,  0.0000,  0.0000)
  24 Rh     2.715290    4.703020   10.434050    ( 0.0000,  0.0000,  0.0000)
  25 Rh     5.430580    4.703020   10.434050    ( 0.0000,  0.0000,  0.0000)
  26 Rh     8.145870    4.703020   10.434050    ( 0.0000,  0.0000,  0.0000)
  27 O      1.357645    0.000000   13.584390    ( 0.0000,  0.0000,  0.0000)
  28 C      1.238302   -0.305156   12.411681    ( 0.0000,  0.0000,  0.0000)

Unit cell:
           periodic     x           y           z      points  spacing
  1. axis:    yes    8.145870    0.000000    0.000000    40     0.1764
  2. axis:    yes    4.072935    7.054530    0.000000    40     0.1764
  3. axis:    no     0.000000    0.000000   16.434050    81     0.2029

  Lengths:   8.145870   8.145870  16.434050
  Angles:   90.000000  90.000000  60.000000

Effective grid spacing dv^(1/3) = 0.1939

     iter     time        total  log10-change:
                         energy  eigst   dens
iter:   1 14:51:37  -199.132486  -1.26
iter:   2 14:51:45  -201.359310  -2.17  -2.04
iter:   3 14:51:52  -198.409725  -2.56  -1.74
iter:   4 14:52:00  -197.885572  -3.23  -2.15
iter:   5 14:52:07  -197.784570  -3.45  -2.51
iter:   6 14:52:15  -197.749576c -3.88  -2.70
iter:   7 14:52:22  -197.723124c -3.79  -2.84
iter:   8 14:52:30  -197.716548c -3.94  -3.05
iter:   9 14:52:37  -197.713747c -4.78  -3.09
iter:  10 14:52:45  -197.716158c -4.59  -3.17
iter:  11 14:52:52  -197.712675c -4.90  -3.05
iter:  12 14:53:00  -197.709823c -5.42  -3.18
iter:  13 14:53:07  -197.709471c -5.53  -3.58
iter:  14 14:53:15  -197.709530c -5.45  -3.67
iter:  15 14:53:22  -197.709432c -6.06  -3.69
iter:  16 14:53:30  -197.709408c -5.92  -3.81
iter:  17 14:53:37  -197.709457c -6.29  -3.87
iter:  18 14:53:45  -197.709321c -6.97  -3.90
iter:  19 14:53:52  -197.709293c -6.51  -4.13c
iter:  20 14:54:00  -197.709276c -6.87  -4.28c
iter:  21 14:54:07  -197.709271c -7.56c -4.42c

Converged after 21 iterations.

Dipole moment: (3.256856, 7.210856, -0.229675) |e|*Ang

Energy contributions relative to reference atoms: (reference = -3516703.949422)

Kinetic:       -185.239016
Potential:     +100.306187
External:        +0.000000
XC:            -109.746481
Entropy (-ST):   -1.712648
Local:           -2.173637
--------------------------
Free energy:   -198.565595
Extrapolated:  -197.709271

Showing only first 2 kpts
 Kpt  Band  Eigenvalues  Occupancy
  0   205      1.60052    1.49015
  0   206      1.64866    1.28722
  0   207      1.69811    1.04826
  0   208      1.78790    0.61950

  1   205      1.64351    1.31070
  1   206      1.70335    1.02210
  1   207      1.73145    0.88215
  1   208      1.73451    0.86708


Fermi level: 1.70777

No gap

Forces in eV/Ang:
  0 Rh   -0.00102   -0.01720    0.45763
  1 Rh   -0.02150   -0.02277    0.45739
  2 Rh    0.02024   -0.01644    0.46464
  3 Rh   -0.05437    0.06301    0.35775
  4 Rh    0.00584    0.02578    0.45460
  5 Rh    0.05167    0.07811    0.34135
  6 Rh    0.01262    0.01034    0.44428
  7 Rh    0.00273    0.00327    0.41843
  8 Rh   -0.01030   -0.09209    0.32537
  9 Rh   -0.05480   -0.06669    0.02249
 10 Rh    0.03825   -0.03135   -0.00498
 11 Rh    0.00747   -0.01416    0.00633
 12 Rh    0.00280    0.00265    0.05766
 13 Rh    0.03009   -0.01752    0.05117
 14 Rh   -0.03806   -0.02160    0.06355
 15 Rh    0.01454    0.08559    0.04992
 16 Rh    0.00134    0.01410   -0.22677
 17 Rh    0.01183    0.05144    0.01208
 18 Rh    0.52204   -0.19797    1.06534
 19 Rh   -0.26097   -0.09076    0.53498
 20 Rh   -0.05129    0.02435   -0.50808
 21 Rh    0.02566    0.26384   -0.52080
 22 Rh    0.02104    0.01206   -0.48552
 23 Rh   -0.04836    0.04921   -0.50685
 24 Rh   -0.15464   -0.12813   -0.52335
 25 Rh    0.02864   -0.12772   -0.18069
 26 Rh    0.12519   -0.08674   -0.49155
 27 O    -0.45586   -1.40645   -4.35537
 28 C     0.24717    1.70453    2.14986

System changes: positions 

Initializing position-dependent things.

Density initialized from wave functions
                                           
                                           
                                           
                                           
                                           
                                           
                                           
          O                                
                Rh     Rh     Rh           
          C                                
            Rh   RRh    RRh    Rh          
       Rh    RRh   RRh    Rh               
                                           
        Rh     Rh   RRh    Rh    Rh        
                                           
                Rh    Rh     Rh            
           Rh    Rh     Rh                 
                                           
                                           
                                           
                                           

Positions:
   0 Rh     1.357645    0.783837    6.000000    ( 0.0000,  0.0000,  0.0000)
   1 Rh     4.072935    0.783837    6.000000    ( 0.0000,  0.0000,  0.0000)
   2 Rh     6.788225    0.783837    6.000000    ( 0.0000,  0.0000,  0.0000)
   3 Rh     2.715290    3.135347    6.000000    ( 0.0000,  0.0000,  0.0000)
   4 Rh     5.430580    3.135347    6.000000    ( 0.0000,  0.0000,  0.0000)
   5 Rh     8.145870    3.135347    6.000000    ( 0.0000,  0.0000,  0.0000)
   6 Rh     4.072935    5.486857    6.000000    ( 0.0000,  0.0000,  0.0000)
   7 Rh     6.788225    5.486857    6.000000    ( 0.0000,  0.0000,  0.0000)
   8 Rh     9.503515    5.486857    6.000000    ( 0.0000,  0.0000,  0.0000)
   9 Rh    -0.000000    1.567673    8.217025    ( 0.0000,  0.0000,  0.0000)
  10 Rh     2.715290    1.567673    8.217025    ( 0.0000,  0.0000,  0.0000)
  11 Rh     5.430580    1.567673    8.217025    ( 0.0000,  0.0000,  0.0000)
  12 Rh     1.357645    3.919184    8.217025    ( 0.0000,  0.0000,  0.0000)
  13 Rh     4.072935    3.919184    8.217025    ( 0.0000,  0.0000,  0.0000)
  14 Rh     6.788225    3.919184    8.217025    ( 0.0000,  0.0000,  0.0000)
  15 Rh     2.715290    6.270694    8.217025    ( 0.0000,  0.0000,  0.0000)
  16 Rh     5.430580    6.270694    8.217025    ( 0.0000,  0.0000,  0.0000)
  17 Rh     8.145870    6.270694    8.217025    ( 0.0000,  0.0000,  0.0000)
  18 Rh     0.000000    0.000000   10.434050    ( 0.0000,  0.0000,  0.0000)
  19 Rh     2.715290    0.000000   10.434050    ( 0.0000,  0.0000,  0.0000)
  20 Rh     5.430580    0.000000   10.434050    ( 0.0000,  0.0000,  0.0000)
  21 Rh     1.357645    2.351510   10.434050    ( 0.0000,  0.0000,  0.0000)
  22 Rh     4.072935    2.351510   10.434050    ( 0.0000,  0.0000,  0.0000)
  23 Rh     6.788225    2.351510   10.434050    ( 0.0000,  0.0000,  0.0000)
  24 Rh     2.715290    4.703020   10.434050    ( 0.0000,  0.0000,  0.0000)
  25 Rh     5.430580    4.703020   10.434050    ( 0.0000,  0.0000,  0.0000)
  26 Rh     8.145870    4.703020   10.434050    ( 0.0000,  0.0000,  0.0000)
  27 O      1.357645    0.000000   13.584390    ( 0.0000,  0.0000,  0.0000)
  28 C      1.337492   -0.048670   12.400238    ( 0.0000,  0.0000,  0.0000)

Unit cell:
           periodic     x           y           z      points  spacing
  1. axis:    yes    8.145870    0.000000    0.000000    40     0.1764
  2. axis:    yes    4.072935    7.054530    0.000000    40     0.1764
  3. axis:    no     0.000000    0.000000   16.434050    81     0.2029

  Lengths:   8.145870   8.145870  16.434050
  Angles:   90.000000  90.000000  60.000000

Effective grid spacing dv^(1/3) = 0.1939

     iter     time        total  log10-change:
                         energy  eigst   dens
iter:   1 14:54:19  -198.290894  -1.55
iter:   2 14:54:26  -199.366230  -2.54  -2.28
iter:   3 14:54:34  -198.062322  -3.02  -1.94
iter:   4 14:54:41  -197.978640  -4.07  -2.47
iter:   5 14:54:49  -197.943302c -3.64  -2.83
iter:   6 14:54:56  -197.936995c -4.20  -2.94
iter:   7 14:55:04  -197.933153c -4.99  -3.06
iter:   8 14:55:11  -197.930450c -4.17  -3.19
iter:   9 14:55:19  -197.930959c -4.85  -3.18
iter:  10 14:55:26  -197.928241c -5.60  -3.17
iter:  11 14:55:33  -197.927514c -5.21  -3.46
iter:  12 14:55:41  -197.927287c -5.58  -3.60
iter:  13 14:55:48  -197.927247c -5.74  -3.77
iter:  14 14:55:56  -197.927113c -6.07  -3.83
iter:  15 14:56:03  -197.927164c -6.56  -3.97
iter:  16 14:56:11  -197.927064c -6.63  -3.90
iter:  17 14:56:18  -197.927020c -6.52  -4.04c
iter:  18 14:56:26  -197.927014c -7.02  -4.36c
iter:  19 14:56:33  -197.927023c -7.35  -4.41c
iter:  20 14:56:41  -197.927031c -7.47c -4.43c

Converged after 20 iterations.

Dipole moment: (0.440129, 2.561955, -0.177383) |e|*Ang

Energy contributions relative to reference atoms: (reference = -3516703.949422)

Kinetic:       -182.387477
Potential:      +97.940401
External:        +0.000000
XC:            -110.463980
Entropy (-ST):   -1.707971
Local:           -2.161989
--------------------------
Free energy:   -198.781017
Extrapolated:  -197.927031

Showing only first 2 kpts
 Kpt  Band  Eigenvalues  Occupancy
  0   205      1.61721    1.49660
  0   206      1.66675    1.28863
  0   207      1.71502    1.05568
  0   208      1.79703    0.65977

  1   205      1.65192    1.35505
  1   206      1.72422    1.00972
  1   207      1.74578    0.90225
  1   208      1.75322    0.86556


Fermi level: 1.72616

No gap

Forces in eV/Ang:
  0 Rh    0.00122   -0.01570    0.46034
  1 Rh   -0.01642   -0.03305    0.45907
  2 Rh    0.01837   -0.03067    0.45834
  3 Rh   -0.04286    0.07457    0.37182
  4 Rh    0.00145    0.02323    0.45939
  5 Rh    0.04397    0.07651    0.36622
  6 Rh   -0.00482    0.00340    0.42727
  7 Rh    0.01167    0.00157    0.41753
  8 Rh    0.00578   -0.09097    0.29686
  9 Rh   -0.03683   -0.03402   -0.07350
 10 Rh    0.03830   -0.03269   -0.07854
 11 Rh    0.00313   -0.01584    0.00994
 12 Rh   -0.00341   -0.00653    0.06735
 13 Rh    0.02106   -0.01240    0.05367
 14 Rh   -0.02070   -0.01356    0.05182
 15 Rh    0.04105    0.08954    0.11229
 16 Rh   -0.00042    0.01500   -0.23934
 17 Rh   -0.03407    0.07785    0.09238
 18 Rh    0.44694   -0.09127    0.98690
 19 Rh   -0.40160   -0.06599    0.89813
 20 Rh   -0.01576    0.02128   -0.50772
 21 Rh    0.01038    0.30369   -0.46408
 22 Rh    0.05780    0.05797   -0.47858
 23 Rh   -0.06516    0.06177   -0.49050
 24 Rh   -0.09236   -0.08693   -0.48937
 25 Rh   -0.00296   -0.25402   -0.40849
 26 Rh    0.08557   -0.07563   -0.48211
 27 O    -0.04336   -0.14794   -2.24945
 28 C    -0.01010    0.17753    0.00845

System changes: positions 

Initializing position-dependent things.

Density initialized from wave functions
                                           
                                           
                                           
                                           
                                           
                                           
                                           
          O                                
                Rh     Rh     Rh           
          C                                
            Rh   RRh    RRh    Rh          
       Rh    RRh   RRh    Rh               
                                           
        Rh     Rh   RRh    Rh    Rh        
                                           
                Rh    Rh     Rh            
           Rh    Rh     Rh                 
                                           
                                           
                                           
                                           

Positions:
   0 Rh     1.357645    0.783837    6.000000    ( 0.0000,  0.0000,  0.0000)
   1 Rh     4.072935    0.783837    6.000000    ( 0.0000,  0.0000,  0.0000)
   2 Rh     6.788225    0.783837    6.000000    ( 0.0000,  0.0000,  0.0000)
   3 Rh     2.715290    3.135347    6.000000    ( 0.0000,  0.0000,  0.0000)
   4 Rh     5.430580    3.135347    6.000000    ( 0.0000,  0.0000,  0.0000)
   5 Rh     8.145870    3.135347    6.000000    ( 0.0000,  0.0000,  0.0000)
   6 Rh     4.072935    5.486857    6.000000    ( 0.0000,  0.0000,  0.0000)
   7 Rh     6.788225    5.486857    6.000000    ( 0.0000,  0.0000,  0.0000)
   8 Rh     9.503515    5.486857    6.000000    ( 0.0000,  0.0000,  0.0000)
   9 Rh    -0.000000    1.567673    8.217025    ( 0.0000,  0.0000,  0.0000)
  10 Rh     2.715290    1.567673    8.217025    ( 0.0000,  0.0000,  0.0000)
  11 Rh     5.430580    1.567673    8.217025    ( 0.0000,  0.0000,  0.0000)
  12 Rh     1.357645    3.919184    8.217025    ( 0.0000,  0.0000,  0.0000)
  13 Rh     4.072935    3.919184    8.217025    ( 0.0000,  0.0000,  0.0000)
  14 Rh     6.788225    3.919184    8.217025    ( 0.0000,  0.0000,  0.0000)
  15 Rh     2.715290    6.270694    8.217025    ( 0.0000,  0.0000,  0.0000)
  16 Rh     5.430580    6.270694    8.217025    ( 0.0000,  0.0000,  0.0000)
  17 Rh     8.145870    6.270694    8.217025    ( 0.0000,  0.0000,  0.0000)
  18 Rh     0.000000    0.000000   10.434050    ( 0.0000,  0.0000,  0.0000)
  19 Rh     2.715290    0.000000   10.434050    ( 0.0000,  0.0000,  0.0000)
  20 Rh     5.430580    0.000000   10.434050    ( 0.0000,  0.0000,  0.0000)
  21 Rh     1.357645    2.351510   10.434050    ( 0.0000,  0.0000,  0.0000)
  22 Rh     4.072935    2.351510   10.434050    ( 0.0000,  0.0000,  0.0000)
  23 Rh     6.788225    2.351510   10.434050    ( 0.0000,  0.0000,  0.0000)
  24 Rh     2.715290    4.703020   10.434050    ( 0.0000,  0.0000,  0.0000)
  25 Rh     5.430580    4.703020   10.434050    ( 0.0000,  0.0000,  0.0000)
  26 Rh     8.145870    4.703020   10.434050    ( 0.0000,  0.0000,  0.0000)
  27 O      1.357645    0.000000   13.584390    ( 0.0000,  0.0000,  0.0000)
  28 C      1.355002   -0.005002   12.398964    ( 0.0000,  0.0000,  0.0000)

Unit cell:
           periodic     x           y           z      points  spacing
  1. axis:    yes    8.145870    0.000000    0.000000    40     0.1764
  2. axis:    yes    4.072935    7.054530    0.000000    40     0.1764
  3. axis:    no     0.000000    0.000000   16.434050    81     0.2029

  Lengths:   8.145870   8.145870  16.434050
  Angles:   90.000000  90.000000  60.000000

Effective grid spacing dv^(1/3) = 0.1939

     iter     time        total  log10-change:
                         energy  eigst   dens
iter:   1 14:56:53  -197.935605  -3.03
iter:   2 14:57:00  -197.934989  -4.39  -3.32
iter:   3 14:57:08  -197.936784c -5.04  -3.26
iter:   4 14:57:15  -197.932859c -5.53  -3.16
iter:   5 14:57:23  -197.931936c -5.48  -3.58
iter:   6 14:57:30  -197.931585c -5.48  -3.80
iter:   7 14:57:38  -197.931575c -6.34  -3.99
iter:   8 14:57:45  -197.931584c -6.65  -4.04c
iter:   9 14:57:53  -197.931604c -6.72  -4.16c
iter:  10 14:58:00  -197.931658c -6.90  -4.04c
iter:  11 14:58:08  -197.931568c -7.04  -4.02c
iter:  12 14:58:15  -197.931542c -6.92  -4.45c
iter:  13 14:58:23  -197.931541c -7.65c -4.60c

Converged after 13 iterations.

Dipole moment: (-0.969301, 0.149564, -0.178599) |e|*Ang

Energy contributions relative to reference atoms: (reference = -3516703.949422)

Kinetic:       -182.408569
Potential:      +97.958135
External:        +0.000000
XC:            -110.461392
Entropy (-ST):   -1.708092
Local:           -2.165668
--------------------------
Free energy:   -198.785587
Extrapolated:  -197.931541

Showing only first 2 kpts
 Kpt  Band  Eigenvalues  Occupancy
  0   205      1.61660    1.49574
  0   206      1.66572    1.28950
  0   207      1.71493    1.05195
  0   208      1.79589    0.66114

  1   205      1.65017    1.35905
  1   206      1.72343    1.00947
  1   207      1.74411    0.90635
  1   208      1.75250    0.86497


Fermi level: 1.72533

No gap

Forces in eV/Ang:
  0 Rh    0.00194   -0.01520    0.45729
  1 Rh   -0.01532   -0.03412    0.45627
  2 Rh    0.01807   -0.03236    0.45387
  3 Rh   -0.04171    0.07449    0.37117
  4 Rh    0.00088    0.02226    0.45724
  5 Rh    0.04315    0.07435    0.36783
  6 Rh   -0.00832    0.00270    0.42232
  7 Rh    0.01342    0.00176    0.41557
  8 Rh    0.00746   -0.08933    0.29136
  9 Rh   -0.03443   -0.03428   -0.07832
 10 Rh    0.03611   -0.03199   -0.08807
 11 Rh    0.00367   -0.01551    0.01218
 12 Rh   -0.00323   -0.00614    0.07060
 13 Rh    0.02223   -0.01033    0.05457
 14 Rh   -0.02177   -0.01246    0.05271
 15 Rh    0.04268    0.08619    0.11379
 16 Rh   -0.00392    0.01514   -0.24241
 17 Rh   -0.03955    0.07944    0.10563
 18 Rh    0.42403   -0.03306    0.94326
 19 Rh   -0.41993   -0.02338    0.94917
 20 Rh   -0.01163    0.02984   -0.50977
 21 Rh    0.00821    0.29237   -0.43701
 22 Rh    0.05481    0.05334   -0.47608
 23 Rh   -0.06109    0.05551   -0.49131
 24 Rh   -0.09035   -0.08997   -0.49380
 25 Rh   -0.00424   -0.27707   -0.44520
 26 Rh    0.08516   -0.08143   -0.48715
 27 O    -0.00276   -0.00881   -2.24076
 28 C    -0.00029    0.02155   -0.02007

System changes: positions 

Initializing position-dependent things.

Density initialized from wave functions
                                           
                                           
                                           
                                           
                                           
                                           
                                           
          O                                
                Rh     Rh     Rh           
          C                                
            Rh   RRh    RRh    Rh          
       Rh    RRh   RRh    Rh               
                                           
        Rh     Rh   RRh    Rh    Rh        
                                           
                Rh    Rh     Rh            
           Rh    Rh     Rh                 
                                           
                                           
                                           
                                           

Positions:
   0 Rh     1.357645    0.783837    6.000000    ( 0.0000,  0.0000,  0.0000)
   1 Rh     4.072935    0.783837    6.000000    ( 0.0000,  0.0000,  0.0000)
   2 Rh     6.788225    0.783837    6.000000    ( 0.0000,  0.0000,  0.0000)
   3 Rh     2.715290    3.135347    6.000000    ( 0.0000,  0.0000,  0.0000)
   4 Rh     5.430580    3.135347    6.000000    ( 0.0000,  0.0000,  0.0000)
   5 Rh     8.145870    3.135347    6.000000    ( 0.0000,  0.0000,  0.0000)
   6 Rh     4.072935    5.486857    6.000000    ( 0.0000,  0.0000,  0.0000)
   7 Rh     6.788225    5.486857    6.000000    ( 0.0000,  0.0000,  0.0000)
   8 Rh     9.503515    5.486857    6.000000    ( 0.0000,  0.0000,  0.0000)
   9 Rh    -0.000000    1.567673    8.217025    ( 0.0000,  0.0000,  0.0000)
  10 Rh     2.715290    1.567673    8.217025    ( 0.0000,  0.0000,  0.0000)
  11 Rh     5.430580    1.567673    8.217025    ( 0.0000,  0.0000,  0.0000)
  12 Rh     1.357645    3.919184    8.217025    ( 0.0000,  0.0000,  0.0000)
  13 Rh     4.072935    3.919184    8.217025    ( 0.0000,  0.0000,  0.0000)
  14 Rh     6.788225    3.919184    8.217025    ( 0.0000,  0.0000,  0.0000)
  15 Rh     2.715290    6.270694    8.217025    ( 0.0000,  0.0000,  0.0000)
  16 Rh     5.430580    6.270694    8.217025    ( 0.0000,  0.0000,  0.0000)
  17 Rh     8.145870    6.270694    8.217025    ( 0.0000,  0.0000,  0.0000)
  18 Rh     0.000000    0.000000   10.434050    ( 0.0000,  0.0000,  0.0000)
  19 Rh     2.715290    0.000000   10.434050    ( 0.0000,  0.0000,  0.0000)
  20 Rh     5.430580    0.000000   10.434050    ( 0.0000,  0.0000,  0.0000)
  21 Rh     1.357645    2.351510   10.434050    ( 0.0000,  0.0000,  0.0000)
  22 Rh     4.072935    2.351510   10.434050    ( 0.0000,  0.0000,  0.0000)
  23 Rh     6.788225    2.351510   10.434050    ( 0.0000,  0.0000,  0.0000)
  24 Rh     2.715290    4.703020   10.434050    ( 0.0000,  0.0000,  0.0000)
  25 Rh     5.430580    4.703020   10.434050    ( 0.0000,  0.0000,  0.0000)
  26 Rh     8.145870    4.703020   10.434050    ( 0.0000,  0.0000,  0.0000)
  27 O      1.357645    0.000000   13.584390    ( 0.0000,  0.0000,  0.0000)
  28 C      1.357031   -0.001838   12.398881    ( 0.0000,  0.0000,  0.0000)

Unit cell:
           periodic     x           y           z      points  spacing
  1. axis:    yes    8.145870    0.000000    0.000000    40     0.1764
  2. axis:    yes    4.072935    7.054530    0.000000    40     0.1764
  3. axis:    no     0.000000    0.000000   16.434050    81     0.2029

  Lengths:   8.145870   8.145870  16.434050
  Angles:   90.000000  90.000000  60.000000

Effective grid spacing dv^(1/3) = 0.1939

     iter     time        total  log10-change:
                         energy  eigst   dens
iter:   1 14:58:34  -197.931727  -5.18
iter:   2 14:58:42  -197.931831  -6.05  -3.95
iter:   3 14:58:49  -197.931687c -6.50  -3.78
iter:   4 14:58:57  -197.931563c -7.29  -4.02c
iter:   5 14:59:05  -197.931548c -7.57c -4.51c

Converged after 5 iterations.

Dipole moment: (-1.074780, -0.033462, -0.178625) |e|*Ang

Energy contributions relative to reference atoms: (reference = -3516703.949422)

Kinetic:       -182.320759
Potential:      +97.879294
External:        +0.000000
XC:            -110.469190
Entropy (-ST):   -1.708092
Local:           -2.166847
--------------------------
Free energy:   -198.785594
Extrapolated:  -197.931548

Showing only first 2 kpts
 Kpt  Band  Eigenvalues  Occupancy
  0   205      1.61705    1.49577
  0   206      1.66616    1.28960
  0   207      1.71538    1.05199
  0   208      1.79633    0.66124

  1   205      1.65051    1.35958
  1   206      1.72388    1.00958
  1   207      1.74448    0.90682
  1   208      1.75298    0.86491


Fermi level: 1.72579

No gap

Forces in eV/Ang:
  0 Rh    0.00180   -0.01481    0.46020
  1 Rh   -0.01460   -0.03356    0.46038
  2 Rh    0.01791   -0.03257    0.45747
  3 Rh   -0.04084    0.07439    0.37489
  4 Rh    0.00072    0.02183    0.46050
  5 Rh    0.04235    0.07372    0.37252
  6 Rh   -0.00916    0.00247    0.42476
  7 Rh    0.01322    0.00136    0.41881
  8 Rh    0.00799   -0.08806    0.29353
  9 Rh   -0.03368   -0.02871   -0.08500
 10 Rh    0.03763   -0.02917   -0.09411
 11 Rh    0.00115   -0.01513    0.01207
 12 Rh   -0.00455   -0.01143    0.07262
 13 Rh    0.01966   -0.01206    0.05365
 14 Rh   -0.01791   -0.01207    0.05057
 15 Rh    0.04425    0.08539    0.11675
 16 Rh   -0.00127    0.01316   -0.23779
 17 Rh   -0.04315    0.07988    0.11019
 18 Rh    0.40979   -0.06647    0.93522
 19 Rh   -0.42643   -0.05680    0.94741
 20 Rh   -0.00427    0.01645   -0.51061
 21 Rh    0.00457    0.31012   -0.46085
 22 Rh    0.07138    0.07082   -0.48857
 23 Rh   -0.07274    0.06616   -0.49778
 24 Rh   -0.07440   -0.07197   -0.48392
 25 Rh   -0.00925   -0.26565   -0.42844
 26 Rh    0.07542   -0.07025   -0.48457
 27 O     0.01222    0.00470   -2.22968
 28 C     0.02097    0.04065   -0.01140

System changes: positions 

Initializing position-dependent things.

Density initialized from wave functions
                                           
                                           
                                           
                                           
                                           
                                           
                                           
          O                                
                Rh     Rh     Rh           
           C                               
            Rh   RRh    RRh    Rh          
       Rh    RRh   RRh    Rh               
                                           
        Rh     Rh   RRh    Rh     Rh       
                                           
                Rh    Rh     Rh            
           Rh     Rh    Rh                 
                                           
                                           
                                           
                                           

Positions:
   0 Rh     1.357645    0.783837    6.000000    ( 0.0000,  0.0000,  0.0000)
   1 Rh     4.072935    0.783837    6.000000    ( 0.0000,  0.0000,  0.0000)
   2 Rh     6.788225    0.783837    6.000000    ( 0.0000,  0.0000,  0.0000)
   3 Rh     2.715290    3.135347    6.000000    ( 0.0000,  0.0000,  0.0000)
   4 Rh     5.430580    3.135347    6.000000    ( 0.0000,  0.0000,  0.0000)
   5 Rh     8.145870    3.135347    6.000000    ( 0.0000,  0.0000,  0.0000)
   6 Rh     4.072935    5.486857    6.000000    ( 0.0000,  0.0000,  0.0000)
   7 Rh     6.788225    5.486857    6.000000    ( 0.0000,  0.0000,  0.0000)
   8 Rh     9.503515    5.486857    6.000000    ( 0.0000,  0.0000,  0.0000)
   9 Rh    -0.000000    1.567673    8.217025    ( 0.0000,  0.0000,  0.0000)
  10 Rh     2.715290    1.567673    8.217025    ( 0.0000,  0.0000,  0.0000)
  11 Rh     5.430580    1.567673    8.217025    ( 0.0000,  0.0000,  0.0000)
  12 Rh     1.357645    3.919184    8.217025    ( 0.0000,  0.0000,  0.0000)
  13 Rh     4.072935    3.919184    8.217025    ( 0.0000,  0.0000,  0.0000)
  14 Rh     6.788225    3.919184    8.217025    ( 0.0000,  0.0000,  0.0000)
  15 Rh     2.715290    6.270694    8.217025    ( 0.0000,  0.0000,  0.0000)
  16 Rh     5.430580    6.270694    8.217025    ( 0.0000,  0.0000,  0.0000)
  17 Rh     8.145870    6.270694    8.217025    ( 0.0000,  0.0000,  0.0000)
  18 Rh     0.000000    0.000000   10.434050    ( 0.0000,  0.0000,  0.0000)
  19 Rh     2.715290    0.000000   10.434050    ( 0.0000,  0.0000,  0.0000)
  20 Rh     5.430580    0.000000   10.434050    ( 0.0000,  0.0000,  0.0000)
  21 Rh     1.357645    2.351510   10.434050    ( 0.0000,  0.0000,  0.0000)
  22 Rh     4.072935    2.351510   10.434050    ( 0.0000,  0.0000,  0.0000)
  23 Rh     6.788225    2.351510   10.434050    ( 0.0000,  0.0000,  0.0000)
  24 Rh     2.715290    4.703020   10.434050    ( 0.0000,  0.0000,  0.0000)
  25 Rh     5.430580    4.703020   10.434050    ( 0.0000,  0.0000,  0.0000)
  26 Rh     8.145870    4.703020   10.434050    ( 0.0000,  0.0000,  0.0000)
  27 O      1.357645    0.000000   13.584390    ( 0.0000,  0.0000,  0.0000)
  28 C      1.664257   -0.097744   12.398643    ( 0.0000,  0.0000,  0.0000)

Unit cell:
           periodic     x           y           z      points  spacing
  1. axis:    yes    8.145870    0.000000    0.000000    40     0.1764
  2. axis:    yes    4.072935    7.054530    0.000000    40     0.1764
  3. axis:    no     0.000000    0.000000   16.434050    81     0.2029

  Lengths:   8.145870   8.145870  16.434050
  Angles:   90.000000  90.000000  60.000000

Effective grid spacing dv^(1/3) = 0.1939

     iter     time        total  log10-change:
                         energy  eigst   dens
iter:   1 14:59:16  -199.496581  -1.26
iter:   2 14:59:24  -201.448636  -2.18  -2.02
iter:   3 14:59:31  -198.676216  -2.53  -1.74
iter:   4 14:59:39  -198.041869  -3.12  -2.10
iter:   5 14:59:46  -197.923876  -3.43  -2.48
iter:   6 14:59:54  -197.887203c -3.86  -2.68
iter:   7 15:00:01  -197.862948c -4.08  -2.82
iter:   8 15:00:09  -197.846343c -3.74  -3.00
iter:   9 15:00:16  -197.846253c -4.47  -3.09
iter:  10 15:00:24  -197.851465c -4.79  -3.10
iter:  11 15:00:32  -197.842102c -4.77  -2.95
iter:  12 15:00:39  -197.840703c -5.07  -3.28
iter:  13 15:00:47  -197.840556c -5.63  -3.59
iter:  14 15:00:54  -197.840529c -5.40  -3.64
iter:  15 15:01:02  -197.840543c -6.17  -3.72
iter:  16 15:01:09  -197.840891c -5.71  -3.75
iter:  17 15:01:17  -197.840440c -6.22  -3.62
iter:  18 15:01:24  -197.840356c -6.67  -3.89
iter:  19 15:01:32  -197.840325c -6.82  -4.18c
iter:  20 15:01:40  -197.840289c -6.62  -4.25c
iter:  21 15:01:47  -197.840284c -7.37  -4.47c
iter:  22 15:01:54  -197.840289c -7.47c -4.60c

Converged after 22 iterations.

Dipole moment: (2.236901, 4.904207, -0.223080) |e|*Ang

Energy contributions relative to reference atoms: (reference = -3516703.949422)

Kinetic:       -186.664642
Potential:     +101.348047
External:        +0.000000
XC:            -109.513351
Entropy (-ST):   -1.706777
Local:           -2.156954
--------------------------
Free energy:   -198.693678
Extrapolated:  -197.840289

Showing only first 2 kpts
 Kpt  Band  Eigenvalues  Occupancy
  0   205      1.59809    1.51606
  0   206      1.65237    1.29090
  0   207      1.70238    1.04950
  0   208      1.80660    0.56052

  1   205      1.65095    1.29740
  1   206      1.71447    0.98907
  1   207      1.72873    0.91797
  1   208      1.73544    0.88474


Fermi level: 1.71228

No gap

Forces in eV/Ang:
  0 Rh    0.01047   -0.01335    0.46333
  1 Rh   -0.01331   -0.01835    0.47676
  2 Rh    0.01910   -0.03469    0.44800
  3 Rh   -0.03081    0.09119    0.34946
  4 Rh   -0.01226    0.02431    0.45444
  5 Rh    0.04865    0.04837    0.38912
  6 Rh   -0.03150   -0.01269    0.40708
  7 Rh   -0.00033    0.00894    0.45044
  8 Rh    0.04735   -0.08341    0.30081
  9 Rh   -0.02590   -0.00987   -0.03522
 10 Rh    0.05511   -0.06996   -0.05923
 11 Rh   -0.00764   -0.01098    0.01398
 12 Rh   -0.00914   -0.00895    0.06981
 13 Rh    0.03090   -0.01213    0.05554
 14 Rh   -0.01194   -0.01355    0.03047
 15 Rh   -0.00327    0.03400    0.00612
 16 Rh   -0.01392    0.00030   -0.26345
 17 Rh   -0.09056    0.12738    0.15137
 18 Rh    0.03582   -0.01746    0.23503
 19 Rh   -0.68403   -0.16861    1.71106
 20 Rh    0.12178    0.01816   -0.51047
 21 Rh   -0.06879    0.29789   -0.48603
 22 Rh    0.09630    0.12001   -0.50345
 23 Rh   -0.03162    0.01645   -0.47603
 24 Rh   -0.06290   -0.04559   -0.45516
 25 Rh   -0.09255   -0.24910   -0.37167
 26 Rh    0.13674   -0.14575   -0.51970
 27 O     1.42232   -0.54060   -5.17598
 28 C    -0.83615    0.67044    2.85784

System changes: positions 

Initializing position-dependent things.

Density initialized from wave functions
                                           
                                           
                                           
                                           
                                           
                                           
                                           
          O                                
                Rh     Rh     Rh           
           C                               
            Rh   RRh    RRh    Rh          
       Rh    RRh   RRh    Rh               
                                           
        Rh     Rh   RRh    Rh    Rh        
                                           
                Rh    Rh     Rh            
           Rh    Rh     Rh                 
                                           
                                           
                                           
                                           

Positions:
   0 Rh     1.357645    0.783837    6.000000    ( 0.0000,  0.0000,  0.0000)
   1 Rh     4.072935    0.783837    6.000000    ( 0.0000,  0.0000,  0.0000)
   2 Rh     6.788225    0.783837    6.000000    ( 0.0000,  0.0000,  0.0000)
   3 Rh     2.715290    3.135347    6.000000    ( 0.0000,  0.0000,  0.0000)
   4 Rh     5.430580    3.135347    6.000000    ( 0.0000,  0.0000,  0.0000)
   5 Rh     8.145870    3.135347    6.000000    ( 0.0000,  0.0000,  0.0000)
   6 Rh     4.072935    5.486857    6.000000    ( 0.0000,  0.0000,  0.0000)
   7 Rh     6.788225    5.486857    6.000000    ( 0.0000,  0.0000,  0.0000)
   8 Rh     9.503515    5.486857    6.000000    ( 0.0000,  0.0000,  0.0000)
   9 Rh    -0.000000    1.567673    8.217025    ( 0.0000,  0.0000,  0.0000)
  10 Rh     2.715290    1.567673    8.217025    ( 0.0000,  0.0000,  0.0000)
  11 Rh     5.430580    1.567673    8.217025    ( 0.0000,  0.0000,  0.0000)
  12 Rh     1.357645    3.919184    8.217025    ( 0.0000,  0.0000,  0.0000)
  13 Rh     4.072935    3.919184    8.217025    ( 0.0000,  0.0000,  0.0000)
  14 Rh     6.788225    3.919184    8.217025    ( 0.0000,  0.0000,  0.0000)
  15 Rh     2.715290    6.270694    8.217025    ( 0.0000,  0.0000,  0.0000)
  16 Rh     5.430580    6.270694    8.217025    ( 0.0000,  0.0000,  0.0000)
  17 Rh     8.145870    6.270694    8.217025    ( 0.0000,  0.0000,  0.0000)
  18 Rh     0.000000    0.000000   10.434050    ( 0.0000,  0.0000,  0.0000)
  19 Rh     2.715290    0.000000   10.434050    ( 0.0000,  0.0000,  0.0000)
  20 Rh     5.430580    0.000000   10.434050    ( 0.0000,  0.0000,  0.0000)
  21 Rh     1.357645    2.351510   10.434050    ( 0.0000,  0.0000,  0.0000)
  22 Rh     4.072935    2.351510   10.434050    ( 0.0000,  0.0000,  0.0000)
  23 Rh     6.788225    2.351510   10.434050    ( 0.0000,  0.0000,  0.0000)
  24 Rh     2.715290    4.703020   10.434050    ( 0.0000,  0.0000,  0.0000)
  25 Rh     5.430580    4.703020   10.434050    ( 0.0000,  0.0000,  0.0000)
  26 Rh     8.145870    4.703020   10.434050    ( 0.0000,  0.0000,  0.0000)
  27 O      1.357645    0.000000   13.584390    ( 0.0000,  0.0000,  0.0000)
  28 C      1.552756    0.009513   12.415990    ( 0.0000,  0.0000,  0.0000)

Unit cell:
           periodic     x           y           z      points  spacing
  1. axis:    yes    8.145870    0.000000    0.000000    40     0.1764
  2. axis:    yes    4.072935    7.054530    0.000000    40     0.1764
  3. axis:    no     0.000000    0.000000   16.434050    81     0.2029

  Lengths:   8.145870   8.145870  16.434050
  Angles:   90.000000  90.000000  60.000000

Effective grid spacing dv^(1/3) = 0.1939

     iter     time        total  log10-change:
                         energy  eigst   dens
iter:   1 15:02:06  -198.203944  -2.04
iter:   2 15:02:14  -198.435001  -2.96  -2.42
iter:   3 15:02:21  -198.110073  -3.35  -2.18
iter:   4 15:02:29  -197.974937  -3.98  -2.43
iter:   5 15:02:36  -197.945491c -3.83  -2.93
iter:   6 15:02:44  -197.941927c -4.69  -3.01
iter:   7 15:02:51  -197.937556c -4.92  -3.08
iter:   8 15:02:58  -197.934542c -4.28  -3.25
iter:   9 15:03:06  -197.934222c -5.32  -3.42
iter:  10 15:03:13  -197.933918c -5.67  -3.48
iter:  11 15:03:21  -197.934687c -5.36  -3.53
iter:  12 15:03:28  -197.933320c -5.74  -3.42
iter:  13 15:03:36  -197.933198c -6.32  -3.76
iter:  14 15:03:43  -197.933175c -6.62  -3.93
iter:  15 15:03:51  -197.933189c -6.52  -4.06c
iter:  16 15:03:58  -197.933227c -6.85  -4.24c
iter:  17 15:04:06  -197.933254c -6.93  -4.22c
iter:  18 15:04:13  -197.933257c -7.12  -4.11c
iter:  19 15:04:21  -197.933262c -7.45c -4.36c

Converged after 19 iterations.

Dipole moment: (-1.202994, -0.678776, -0.148001) |e|*Ang

Energy contributions relative to reference atoms: (reference = -3516703.949422)

Kinetic:       -182.507231
Potential:      +97.961202
External:        +0.000000
XC:            -110.400170
Entropy (-ST):   -1.708640
Local:           -2.132744
--------------------------
Free energy:   -198.787582
Extrapolated:  -197.933262

Showing only first 2 kpts
 Kpt  Band  Eigenvalues  Occupancy
  0   205      1.62769    1.50242
  0   206      1.68014    1.28242
  0   207      1.72470    1.06739
  0   208      1.82182    0.60466

  1   205      1.66573    1.34728
  1   206      1.73774    1.00231
  1   207      1.75497    0.91634
  1   208      1.76317    0.87581


Fermi level: 1.73820

No gap

Forces in eV/Ang:
  0 Rh    0.01032   -0.01444    0.45277
  1 Rh   -0.01161   -0.02582    0.46004
  2 Rh    0.01681   -0.03631    0.43983
  3 Rh   -0.03196    0.08180    0.35790
  4 Rh   -0.00761    0.02092    0.44946
  5 Rh    0.04345    0.05674    0.38195
  6 Rh   -0.02407   -0.00662    0.40321
  7 Rh    0.00549    0.00583    0.42899
  8 Rh    0.02839   -0.07848    0.29031
  9 Rh   -0.02687   -0.01747   -0.06465
 10 Rh    0.04166   -0.03904   -0.11038
 11 Rh   -0.00274   -0.01137    0.01362
 12 Rh   -0.00407   -0.01530    0.06936
 13 Rh    0.02426   -0.01009    0.05147
 14 Rh   -0.01430   -0.01148    0.04022
 15 Rh    0.01721    0.04861    0.04053
 16 Rh   -0.01502    0.00591   -0.24789
 17 Rh   -0.09670    0.11992    0.19527
 18 Rh    0.13087   -0.00769    0.42714
 19 Rh   -0.57639   -0.08277    1.41210
 20 Rh    0.07871    0.01812   -0.49785
 21 Rh   -0.05464    0.31212   -0.44668
 22 Rh    0.09693    0.10528   -0.48469
 23 Rh   -0.05231    0.03697   -0.46961
 24 Rh   -0.05853   -0.04889   -0.45035
 25 Rh   -0.05754   -0.28010   -0.43997
 26 Rh    0.10281   -0.11103   -0.49195
 27 O     0.42898    0.02897   -2.25427
 28 C     0.00400   -0.03866    0.06300

System changes: positions 

Initializing position-dependent things.

Density initialized from wave functions
                                           
                                           
                                           
                                           
                                           
                                           
                                           
          O                                
                Rh     Rh     Rh           
           C                               
            Rh   RRh    RRh    Rh          
       Rh    RRh   RRh    Rh               
                                           
        Rh     Rh   RRh    Rh    Rh        
                                           
                Rh    Rh     Rh            
           Rh    Rh     Rh                 
                                           
                                           
                                           
                                           

Positions:
   0 Rh     1.357645    0.783837    6.000000    ( 0.0000,  0.0000,  0.0000)
   1 Rh     4.072935    0.783837    6.000000    ( 0.0000,  0.0000,  0.0000)
   2 Rh     6.788225    0.783837    6.000000    ( 0.0000,  0.0000,  0.0000)
   3 Rh     2.715290    3.135347    6.000000    ( 0.0000,  0.0000,  0.0000)
   4 Rh     5.430580    3.135347    6.000000    ( 0.0000,  0.0000,  0.0000)
   5 Rh     8.145870    3.135347    6.000000    ( 0.0000,  0.0000,  0.0000)
   6 Rh     4.072935    5.486857    6.000000    ( 0.0000,  0.0000,  0.0000)
   7 Rh     6.788225    5.486857    6.000000    ( 0.0000,  0.0000,  0.0000)
   8 Rh     9.503515    5.486857    6.000000    ( 0.0000,  0.0000,  0.0000)
   9 Rh    -0.000000    1.567673    8.217025    ( 0.0000,  0.0000,  0.0000)
  10 Rh     2.715290    1.567673    8.217025    ( 0.0000,  0.0000,  0.0000)
  11 Rh     5.430580    1.567673    8.217025    ( 0.0000,  0.0000,  0.0000)
  12 Rh     1.357645    3.919184    8.217025    ( 0.0000,  0.0000,  0.0000)
  13 Rh     4.072935    3.919184    8.217025    ( 0.0000,  0.0000,  0.0000)
[...]
  26 Rh     8.145870    4.703020   10.434050    ( 0.0000,  0.0000,  0.0000)
  27 O      1.357645    0.000000   13.584390    ( 0.0000,  0.0000,  0.0000)
  28 C      1.621172   -0.000269   12.431329    ( 0.0000,  0.0000,  0.0000)

Unit cell:
           periodic     x           y           z      points  spacing
  1. axis:    yes    8.145870    0.000000    0.000000    40     0.1764
  2. axis:    yes    4.072935    7.054530    0.000000    40     0.1764
  3. axis:    no     0.000000    0.000000   16.434050    81     0.2029

  Lengths:   8.145870   8.145870  16.434050
  Angles:   90.000000  90.000000  60.000000

Effective grid spacing dv^(1/3) = 0.1939

     iter     time        total  log10-change:
                         energy  eigst   dens
iter:   1 15:20:31  -197.939062  -3.96
iter:   2 15:20:38  -197.971089  -4.42  -3.19
iter:   3 15:20:46  -197.934763c -4.84  -2.75
iter:   4 15:20:53  -197.934698c -6.19  -4.04c
iter:   5 15:21:01  -197.934683c -6.63  -4.14c
iter:   6 15:21:08  -197.934659c -6.69  -4.22c
iter:   7 15:21:16  -197.934644c -7.09  -4.29c
iter:   8 15:21:23  -197.934697c -7.01  -4.43c
iter:   9 15:21:30  -197.934637c -7.22  -4.16c
iter:  10 15:21:38  -197.934635c -7.96c -4.44c

Converged after 10 iterations.

Dipole moment: (-0.821786, -0.120397, -0.122581) |e|*Ang

Energy contributions relative to reference atoms: (reference = -3516703.949422)

Kinetic:       -182.346534
Potential:      +97.809562
External:        +0.000000
XC:            -110.383137
Entropy (-ST):   -1.708354
Local:           -2.160349
--------------------------
Free energy:   -198.788811
Extrapolated:  -197.934635

Showing only first 2 kpts
 Kpt  Band  Eigenvalues  Occupancy
  0   205      1.63776    1.50712
  0   206      1.69085    1.28523
  0   207      1.73451    1.07494
  0   208      1.84180    0.56881

  1   205      1.68590    1.30780
  1   206      1.75018    0.99675
  1   207      1.76536    0.92100
  1   208      1.77339    0.88123


Fermi level: 1.74953

No gap

Forces in eV/Ang:
  0 Rh    0.01187   -0.01369    0.46145
  1 Rh   -0.01094   -0.02207    0.47005
  2 Rh    0.01602   -0.03643    0.44452
  3 Rh   -0.02841    0.08327    0.36034
  4 Rh   -0.01022    0.02052    0.45411
  5 Rh    0.04353    0.04945    0.39473
  6 Rh   -0.03036   -0.01050    0.40605
  7 Rh    0.00317    0.00707    0.44331
  8 Rh    0.03684   -0.07298    0.30273
  9 Rh   -0.02406   -0.01126   -0.05311
 10 Rh    0.04375   -0.04493   -0.10463
 11 Rh   -0.00458   -0.00943    0.01552
 12 Rh   -0.00582   -0.01598    0.06486
 13 Rh    0.02513   -0.01080    0.05004
 14 Rh   -0.01076   -0.01191    0.03334
 15 Rh    0.01179    0.03953    0.02451
 16 Rh   -0.01493    0.00262   -0.25037
 17 Rh   -0.11056    0.12852    0.20644
 18 Rh    0.04353    0.00040    0.26007
 19 Rh   -0.63560   -0.09446    1.55682
 20 Rh    0.10714    0.01702   -0.50777
 21 Rh   -0.07320    0.29662   -0.45633
 22 Rh    0.10169    0.11885   -0.50113
 23 Rh   -0.04050    0.02530   -0.47087
 24 Rh   -0.05032   -0.04194   -0.44820
 25 Rh   -0.07739   -0.26555   -0.44250
 26 Rh    0.11219   -0.12722   -0.50832
 27 O     0.54250   -0.00331   -2.18267
 28 C    -0.03879    0.00315   -0.00226

System changes: positions 

Initializing position-dependent things.

Density initialized from wave functions
                                           
                                           
                                           
                                           
                                           
                                           
                                           
          O                                
                Rh     Rh     Rh           
           C                               
            Rh   RRh    RRh    Rh          
       Rh    RRh   RRh    Rh               
                                           
        Rh     Rh   RRh    Rh    Rh        
                                           
                Rh    Rh     Rh            
           Rh    Rh     Rh                 
                                           
                                           
                                           
                                           

Positions:
   0 Rh     1.357645    0.783837    6.000000    ( 0.0000,  0.0000,  0.0000)
   1 Rh     4.072935    0.783837    6.000000    ( 0.0000,  0.0000,  0.0000)
   2 Rh     6.788225    0.783837    6.000000    ( 0.0000,  0.0000,  0.0000)
   3 Rh     2.715290    3.135347    6.000000    ( 0.0000,  0.0000,  0.0000)
   4 Rh     5.430580    3.135347    6.000000    ( 0.0000,  0.0000,  0.0000)
   5 Rh     8.145870    3.135347    6.000000    ( 0.0000,  0.0000,  0.0000)
   6 Rh     4.072935    5.486857    6.000000    ( 0.0000,  0.0000,  0.0000)
   7 Rh     6.788225    5.486857    6.000000    ( 0.0000,  0.0000,  0.0000)
   8 Rh     9.503515    5.486857    6.000000    ( 0.0000,  0.0000,  0.0000)
   9 Rh    -0.000000    1.567673    8.217025    ( 0.0000,  0.0000,  0.0000)
  10 Rh     2.715290    1.567673    8.217025    ( 0.0000,  0.0000,  0.0000)
  11 Rh     5.430580    1.567673    8.217025    ( 0.0000,  0.0000,  0.0000)
  12 Rh     1.357645    3.919184    8.217025    ( 0.0000,  0.0000,  0.0000)
  13 Rh     4.072935    3.919184    8.217025    ( 0.0000,  0.0000,  0.0000)
  14 Rh     6.788225    3.919184    8.217025    ( 0.0000,  0.0000,  0.0000)
  15 Rh     2.715290    6.270694    8.217025    ( 0.0000,  0.0000,  0.0000)
  16 Rh     5.430580    6.270694    8.217025    ( 0.0000,  0.0000,  0.0000)
  17 Rh     8.145870    6.270694    8.217025    ( 0.0000,  0.0000,  0.0000)
  18 Rh     0.000000    0.000000   10.434050    ( 0.0000,  0.0000,  0.0000)
  19 Rh     2.715290    0.000000   10.434050    ( 0.0000,  0.0000,  0.0000)
  20 Rh     5.430580    0.000000   10.434050    ( 0.0000,  0.0000,  0.0000)
  21 Rh     1.357645    2.351510   10.434050    ( 0.0000,  0.0000,  0.0000)
  22 Rh     4.072935    2.351510   10.434050    ( 0.0000,  0.0000,  0.0000)
  23 Rh     6.788225    2.351510   10.434050    ( 0.0000,  0.0000,  0.0000)
  24 Rh     2.715290    4.703020   10.434050    ( 0.0000,  0.0000,  0.0000)
  25 Rh     5.430580    4.703020   10.434050    ( 0.0000,  0.0000,  0.0000)
  26 Rh     8.145870    4.703020   10.434050    ( 0.0000,  0.0000,  0.0000)
  27 O      1.357645    0.000000   13.584390    ( 0.0000,  0.0000,  0.0000)
  28 C      1.614122   -0.000199   12.429639    ( 0.0000,  0.0000,  0.0000)

Unit cell:
           periodic     x           y           z      points  spacing
  1. axis:    yes    8.145870    0.000000    0.000000    40     0.1764
  2. axis:    yes    4.072935    7.054530    0.000000    40     0.1764
  3. axis:    no     0.000000    0.000000   16.434050    81     0.2029

  Lengths:   8.145870   8.145870  16.434050
  Angles:   90.000000  90.000000  60.000000

Effective grid spacing dv^(1/3) = 0.1939

     iter     time        total  log10-change:
                         energy  eigst   dens
iter:   1 15:21:50  -197.935034  -4.63
iter:   2 15:21:58  -197.936316  -5.52  -3.74
iter:   3 15:22:05  -197.934680c -5.99  -3.39
iter:   4 15:22:12  -197.934605c -7.14  -4.10c
iter:   5 15:22:20  -197.934585c -7.29  -4.42c
iter:   6 15:22:27  -197.934568c -7.39  -4.55c
iter:   7 15:22:35  -197.934564c -7.83c -4.61c

Converged after 7 iterations.

Dipole moment: (-0.829208, -0.124554, -0.125368) |e|*Ang

Energy contributions relative to reference atoms: (reference = -3516703.949422)

Kinetic:       -182.268753
Potential:      +97.742404
External:        +0.000000
XC:            -110.391572
Entropy (-ST):   -1.708411
Local:           -2.162438
--------------------------
Free energy:   -198.788770
Extrapolated:  -197.934564

Showing only first 2 kpts
 Kpt  Band  Eigenvalues  Occupancy
  0   205      1.63658    1.50657
  0   206      1.68963    1.28473
  0   207      1.73334    1.07415
  0   208      1.83955    0.57255

  1   205      1.68353    1.31254
  1   206      1.74873    0.99733
  1   207      1.76417    0.92029
  1   208      1.77218    0.88064


Fermi level: 1.74820

No gap

Forces in eV/Ang:
  0 Rh    0.01142   -0.01406    0.46114
  1 Rh   -0.01106   -0.02235    0.47021
  2 Rh    0.01641   -0.03628    0.44396
  3 Rh   -0.02913    0.08349    0.36115
  4 Rh   -0.01001    0.02077    0.45395
  5 Rh    0.04385    0.05066    0.39351
  6 Rh   -0.02945   -0.01010    0.40562
  7 Rh    0.00350    0.00672    0.44255
  8 Rh    0.03564   -0.07392    0.30271
  9 Rh   -0.02439   -0.01122   -0.05477
 10 Rh    0.04298   -0.04413   -0.10501
 11 Rh   -0.00345   -0.00902    0.01505
 12 Rh   -0.00556   -0.01629    0.06547
 13 Rh    0.02510   -0.01065    0.05018
 14 Rh   -0.01126   -0.01250    0.03386
 15 Rh    0.01099    0.03934    0.02395
 16 Rh   -0.01602    0.00303   -0.25040
 17 Rh   -0.10974    0.12770    0.20560
 18 Rh    0.04514   -0.00061    0.26157
 19 Rh   -0.61381   -0.09397    1.54660
 20 Rh    0.10525    0.01756   -0.50362
 21 Rh   -0.06850    0.30252   -0.45631
 22 Rh    0.09925    0.11564   -0.49602
 23 Rh   -0.04263    0.02587   -0.47428
 24 Rh   -0.05202   -0.04239   -0.45182
 25 Rh   -0.07275   -0.27143   -0.44280
 26 Rh    0.10996   -0.12454   -0.50329
 27 O     0.54985   -0.00236   -2.17579
 28 C    -0.00871    0.00295   -0.01276

System changes: positions 

Initializing position-dependent things.

Density initialized from wave functions
                                           
                                           
                                           
                                           
                                           
                                           
                                           
          O                                
                Rh     Rh     Rh           
           C                               
            Rh   RRh    RRh    Rh          
       Rh    RRh   RRh    Rh               
                                           
        Rh     Rh   RRh    Rh    Rh        
                                           
                Rh    Rh     Rh            
           Rh    Rh     Rh                 
                                           
                                           
                                           
                                           

Positions:
   0 Rh     1.357645    0.783837    6.000000    ( 0.0000,  0.0000,  0.0000)
   1 Rh     4.072935    0.783837    6.000000    ( 0.0000,  0.0000,  0.0000)
   2 Rh     6.788225    0.783837    6.000000    ( 0.0000,  0.0000,  0.0000)
   3 Rh     2.715290    3.135347    6.000000    ( 0.0000,  0.0000,  0.0000)
   4 Rh     5.430580    3.135347    6.000000    ( 0.0000,  0.0000,  0.0000)
   5 Rh     8.145870    3.135347    6.000000    ( 0.0000,  0.0000,  0.0000)
   6 Rh     4.072935    5.486857    6.000000    ( 0.0000,  0.0000,  0.0000)
   7 Rh     6.788225    5.486857    6.000000    ( 0.0000,  0.0000,  0.0000)
   8 Rh     9.503515    5.486857    6.000000    ( 0.0000,  0.0000,  0.0000)
   9 Rh    -0.000000    1.567673    8.217025    ( 0.0000,  0.0000,  0.0000)
  10 Rh     2.715290    1.567673    8.217025    ( 0.0000,  0.0000,  0.0000)
  11 Rh     5.430580    1.567673    8.217025    ( 0.0000,  0.0000,  0.0000)
  12 Rh     1.357645    3.919184    8.217025    ( 0.0000,  0.0000,  0.0000)
  13 Rh     4.072935    3.919184    8.217025    ( 0.0000,  0.0000,  0.0000)
  14 Rh     6.788225    3.919184    8.217025    ( 0.0000,  0.0000,  0.0000)
  15 Rh     2.715290    6.270694    8.217025    ( 0.0000,  0.0000,  0.0000)
  16 Rh     5.430580    6.270694    8.217025    ( 0.0000,  0.0000,  0.0000)
  17 Rh     8.145870    6.270694    8.217025    ( 0.0000,  0.0000,  0.0000)
  18 Rh     0.000000    0.000000   10.434050    ( 0.0000,  0.0000,  0.0000)
  19 Rh     2.715290    0.000000   10.434050    ( 0.0000,  0.0000,  0.0000)
  20 Rh     5.430580    0.000000   10.434050    ( 0.0000,  0.0000,  0.0000)
  21 Rh     1.357645    2.351510   10.434050    ( 0.0000,  0.0000,  0.0000)
  22 Rh     4.072935    2.351510   10.434050    ( 0.0000,  0.0000,  0.0000)
  23 Rh     6.788225    2.351510   10.434050    ( 0.0000,  0.0000,  0.0000)
  24 Rh     2.715290    4.703020   10.434050    ( 0.0000,  0.0000,  0.0000)
  25 Rh     5.430580    4.703020   10.434050    ( 0.0000,  0.0000,  0.0000)
  26 Rh     8.145870    4.703020   10.434050    ( 0.0000,  0.0000,  0.0000)
  27 O      1.357645    0.000000   13.584390    ( 0.0000,  0.0000,  0.0000)
  28 C      1.612438   -0.000088   12.429257    ( 0.0000,  0.0000,  0.0000)

Unit cell:
           periodic     x           y           z      points  spacing
  1. axis:    yes    8.145870    0.000000    0.000000    40     0.1764
  2. axis:    yes    4.072935    7.054530    0.000000    40     0.1764
  3. axis:    no     0.000000    0.000000   16.434050    81     0.2029

  Lengths:   8.145870   8.145870  16.434050
  Angles:   90.000000  90.000000  60.000000

Effective grid spacing dv^(1/3) = 0.1939

     iter     time        total  log10-change:
                         energy  eigst   dens
iter:   1 15:22:47  -197.935105  -5.63
iter:   2 15:22:55  -197.938078  -5.43  -3.67
iter:   3 15:23:02  -197.934600c -5.81  -3.25
iter:   4 15:23:09  -197.934561c -7.19  -4.29c
iter:   5 15:23:17  -197.934543c -7.11  -4.60c
iter:   6 15:23:24  -197.934542c -8.11c -5.11c

Converged after 6 iterations.

Dipole moment: (-0.834277, -0.130683, -0.125540) |e|*Ang

Energy contributions relative to reference atoms: (reference = -3516703.949422)

Kinetic:       -182.235648
Potential:      +97.713195
External:        +0.000000
XC:            -110.396353
Entropy (-ST):   -1.708423
Local:           -2.161525
--------------------------
Free energy:   -198.788754
Extrapolated:  -197.934542

Showing only first 2 kpts
 Kpt  Band  Eigenvalues  Occupancy
  0   205      1.63670    1.50656
  0   206      1.68978    1.28462
  0   207      1.73345    1.07421
  0   208      1.83945    0.57349

  1   205      1.68336    1.31383
  1   206      1.74884    0.99740
  1   207      1.76430    0.92027
  1   208      1.77233    0.88053


Fermi level: 1.74832

No gap

Forces in eV/Ang:
  0 Rh    0.01136   -0.01395    0.46177
  1 Rh   -0.01072   -0.02226    0.47042
  2 Rh    0.01619   -0.03619    0.44504
  3 Rh   -0.02899    0.08316    0.36153
  4 Rh   -0.00984    0.02045    0.45488
  5 Rh    0.04355    0.05060    0.39413
  6 Rh   -0.02927   -0.00987    0.40684
  7 Rh    0.00339    0.00665    0.44289
  8 Rh    0.03543   -0.07388    0.30271
  9 Rh   -0.02455   -0.01175   -0.05442
 10 Rh    0.04331   -0.04408   -0.10499
 11 Rh   -0.00393   -0.00954    0.01526
 12 Rh   -0.00580   -0.01602    0.06563
 13 Rh    0.02532   -0.01093    0.05040
 14 Rh   -0.01132   -0.01239    0.03416
 15 Rh    0.01139    0.04047    0.02524
 16 Rh   -0.01558    0.00328   -0.24966
 17 Rh   -0.10854    0.12764    0.20502
 18 Rh    0.04774   -0.00038    0.26808
 19 Rh   -0.62056   -0.09340    1.54067
 20 Rh    0.10535    0.01790   -0.50942
 21 Rh   -0.06954    0.30090   -0.46053
 22 Rh    0.10008    0.11639   -0.50134
 23 Rh   -0.04183    0.02584   -0.47623
 24 Rh   -0.05146   -0.04263   -0.45420
 25 Rh   -0.07360   -0.27021   -0.44700
 26 Rh    0.11040   -0.12539   -0.50879
 27 O     0.54563   -0.00182   -2.17941
 28 C    -0.00108    0.00339   -0.00088

Timing:                                      incl.     excl.
-------------------------------------------------------------------
Density initialized from wave functions:    16.483    16.483   0.6% |
 Symmetrize density:                         0.001     0.001   0.0% |
Forces:                                     85.630    85.630   3.2% ||
Hamiltonian:                                16.839     0.108   0.0% |
 Atomic:                                     3.606     1.897   0.1% |
  XC Correction:                             1.709     1.709   0.1% |
 Calculate atomic Hamiltonians:              7.548     7.548   0.3% |
 Communicate:                                0.287     0.287   0.0% |
 Initialize Hamiltonian:                     0.001     0.001   0.0% |
 Poisson:                                    0.076     0.076   0.0% |
 XC 3D grid:                                 5.214     5.214   0.2% |
LCAO initialization:                        15.833     0.320   0.0% |
 LCAO eigensolver:                           2.590     0.000   0.0% |
  Calculate projections:                     0.004     0.004   0.0% |
  DenseAtomicCorrection:                     0.005     0.005   0.0% |
  Distribute overlap matrix:                 0.177     0.177   0.0% |
  Orbital Layouts:                           0.077     0.077   0.0% |
  Potential matrix:                          2.296     2.296   0.1% |
  Sum over cells:                            0.029     0.029   0.0% |
 LCAO to grid:                              12.344    12.344   0.5% |
 Set positions (LCAO WFS):                   0.580     0.303   0.0% |
  Basic WFS set positions:                   0.001     0.001   0.0% |
  Basis functions set positions:             0.000     0.000   0.0% |
  P tci:                                     0.135     0.135   0.0% |
  ST tci:                                    0.108     0.108   0.0% |
  mktci:                                     0.033     0.033   0.0% |
PWDescriptor:                                0.017     0.017   0.0% |
Redistribute:                                0.041     0.041   0.0% |
SCF-cycle:                                2501.908    28.520   1.1% |
 Davidson:                                2067.945   415.452  15.6% |-----|
  Apply H:                                 211.327   205.357   7.7% |--|
   HMM T:                                    5.969     5.969   0.2% |
  Subspace diag:                           358.205     0.043   0.0% |
   calc_h_matrix:                          262.278    52.183   2.0% ||
    Apply H:                               210.095   204.106   7.7% |--|
     HMM T:                                  5.988     5.988   0.2% |
   diagonalize:                             10.481    10.481   0.4% |
   rotate_psi:                              85.402    85.402   3.2% ||
  calc. matrices:                          738.877   318.591  12.0% |----|
   Apply H:                                420.286   408.355  15.3% |-----|
    HMM T:                                  11.930    11.930   0.4% |
  diagonalize:                             181.757   181.757   6.8% |--|
  rotate_psi:                              162.328   162.328   6.1% |-|
 Density:                                  199.165     0.008   0.0% |
  Atomic density matrices:                   1.377     1.377   0.1% |
  Mix:                                      96.834    96.834   3.6% ||
  Multipole moments:                         0.142     0.142   0.0% |
  Pseudo density:                          100.804   100.797   3.8% |-|
   Symmetrize density:                       0.007     0.007   0.0% |
 Hamiltonian:                              192.967     1.214   0.0% |
  Atomic:                                   41.219    21.729   0.8% |
   XC Correction:                           19.490    19.490   0.7% |
  Calculate atomic Hamiltonians:            86.836    86.836   3.3% ||
  Communicate:                               2.852     2.852   0.1% |
  Poisson:                                   0.863     0.863   0.0% |
  XC 3D grid:                               59.983    59.983   2.3% ||
 Orthonormalize:                            13.310     0.006   0.0% |
  calc_s_matrix:                             1.969     1.969   0.1% |
  inverse-cholesky:                          0.408     0.408   0.0% |
  projections:                               7.499     7.499   0.3% |
  rotate_psi_s:                              3.428     3.428   0.1% |
Set symmetry:                                0.001     0.001   0.0% |
Other:                                      25.001    25.001   0.9% |
-------------------------------------------------------------------
Total:                                              2661.754 100.0%

Memory usage: 926.60 MiB
Date: Thu Mar  2 15:23:28 2023
