
  ___ ___ ___ _ _ _  
 |   |   |_  | | | | 
 | | | | | . | | | | 
 |__ |  _|___|_____|  22.8.0
 |___|_|             

User:   gotols@vera53-2
Date:   Fri Mar 10 09:59:59 2023
Arch:   x86_64
Pid:    3411029
CWD:    /cephyr/users/gotols/Vera/TIF320-Computational-materials-and-molecular-physics-Assignments
Python: 3.10.4
gpaw:   /apps/Arch/software/GPAW/22.8.0-foss-2022a/lib/python3.10/site-packages/gpaw
_gpaw:  /apps/Arch/software/GPAW/22.8.0-foss-2022a/lib/python3.10/site-packages/
        _gpaw.cpython-310-x86_64-linux-gnu.so
ase:    /apps/Arch/software/ASE/3.22.1-foss-2022a/lib/python3.10/site-packages/ase (version 3.22.1)
numpy:  /apps/Arch/software/SciPy-bundle/2022.05-foss-2022a/lib/python3.10/site-packages/numpy (version 1.22.3)
scipy:  /apps/Arch/software/SciPy-bundle/2022.05-foss-2022a/lib/python3.10/site-packages/scipy (version 1.8.1)
libxc:  5.2.3
units:  Angstrom and eV
cores: 16
OpenMP: False
OMP_NUM_THREADS: 1

Input parameters:
  kpts: [4 4 1]
  mode: {ecut: 450.00000000000006,
         name: pw}
  xc: PBE

System changes: positions, numbers, cell, pbc, initial_charges, initial_magmoms 

Initialize ...

species:
  Pt:
    name: Platinum
    id: 5ed695806aff0c961dba1a84acd7f4b2
    Z: 78.0
    valence: 16
    core: 62
    charge: 0.0
    file: /apps/Common/software/GPAW-setups/0.9.20000/Pt.PBE.gz
    compensation charges: {type: gauss,
                           rc: 0.41,
                           lmax: 2}
    cutoffs: {filter: 2.26,
              core: 2.26}
    valence states:
      #              energy  rcut
      - 6s(1.00)    -5.628   1.307
      - 5p(6.00)   -56.051   1.371
      - 6p(0.00)    -0.845   1.371
      - 5d(9.00)    -6.153   1.307
      -  s          21.583   1.307
      -  d          21.058   1.307
  
    # Using partial waves for Pt as LCAO basis

  O:
    name: Oxygen
    id: 32ecd46bf208036f09c70b0ec9a88b78
    Z: 8.0
    valence: 6
    core: 2
    charge: 0.0
    file: /apps/Common/software/GPAW-setups/0.9.20000/O.PBE.gz
    compensation charges: {type: gauss,
                           rc: 0.21,
                           lmax: 2}
    cutoffs: {filter: 1.17,
              core: 0.83}
    valence states:
      #              energy  rcut
      - 2s(2.00)   -23.961   0.688
      - 2p(4.00)    -9.029   0.598
      -  s           3.251   0.688
      -  p          18.182   0.598
      -  d           0.000   0.619
  
    # Using partial waves for O as LCAO basis

  C:
    name: Carbon
    id: 4aa54d4b901d75f77cc0ea3eec22967b
    Z: 6.0
    valence: 4
    core: 2
    charge: 0.0
    file: /apps/Common/software/GPAW-setups/0.9.20000/C.PBE.gz
    compensation charges: {type: gauss,
                           rc: 0.20,
                           lmax: 2}
    cutoffs: {filter: 1.14,
              core: 1.14}
    valence states:
      #              energy  rcut
      - 2s(2.00)   -13.751   0.635
      - 2p(2.00)    -5.284   0.635
      -  s          13.461   0.635
      -  p          21.927   0.635
      -  d           0.000   0.635
  
    # Using partial waves for C as LCAO basis

Reference energy: -13513203.275138  # eV

Spin-paired calculation

Convergence criteria:
 Maximum [total energy] change in last 3 cyles: 0.0005 eV / electron
 Maximum integral of absolute [dens]ity change: 0.0001 electrons / valence electron
 Maximum integral of absolute [eigenst]ate change: 4e-08 eV^2 / valence electron
 Maximum number of scf [iter]ations: 333
 (Square brackets indicate name in SCF output, whereas a 'c' in
 the SCF output indicates the quantity has converged.)

Symmetries present (total): 6

  ( 1  0  0)  ( 1 -1  0)  ( 0  1  0)  ( 0 -1  0)  (-1  1  0)  (-1  0  0)
  ( 0  1  0)  ( 0 -1  0)  ( 1  0  0)  ( 1 -1  0)  (-1  0  0)  (-1  1  0)
  ( 0  0  1)  ( 0  0  1)  ( 0  0  1)  ( 0  0  1)  ( 0  0  1)  ( 0  0  1)
Note: your k-points are not as symmetric as your crystal!

16 k-points: 4 x 4 x 1 Monkhorst-Pack grid
6 k-points in the irreducible part of the Brillouin zone
       k-points in crystal coordinates                weights
   0:     0.12500000   -0.12500000    0.00000000          2/16
   1:     0.12500000    0.12500000    0.00000000          2/16
   2:     0.37500000   -0.37500000    0.00000000          2/16
   3:     0.37500000   -0.12500000    0.00000000          4/16
   4:     0.37500000    0.12500000    0.00000000          4/16
   5:     0.37500000    0.37500000    0.00000000          2/16

Wave functions: Plane wave expansion
  Cutoff energy: 450.000 eV
  Number of coefficients (min, max): 22059, 22107
  Pulay-stress correction: 0.000000 eV/Ang^3 (de/decut=0.000000)
  Using FFTW library
  ScaLapack parameters: grid=1x1, blocksize=None
  Wavefunction extrapolation:
    Improved wavefunction reuse through dual PAW basis 

Occupation numbers: Fermi-Dirac:
  width: 0.1000  # eV
 

Eigensolver
   Davidson(niter=2) 

Densities:
  Coarse grid: 42*42*84 grid
  Fine grid: 84*84*168 grid
  Total Charge: 0.000000 

Density mixing:
  Method: separate
  Backend: pulay
  Linear mixing parameter: 0.05
  old densities: 5
  Damping of long wavelength oscillations: 50 

Hamiltonian:
  XC and Coulomb potentials evaluated on a 84*84*168 grid
  Using the PBE Exchange-Correlation functional
  External potential:
    NoExternalPotential
 

XC parameters: PBE with 2 nearest neighbor stencil

Memory estimate:
  Process memory now: 1004.14 MiB
  Calculator: 397.52 MiB
    Density: 9.49 MiB
      Arrays: 3.67 MiB
      Localized functions: 4.41 MiB
      Mixer: 1.41 MiB
    Hamiltonian: 2.52 MiB
      Arrays: 2.40 MiB
      XC: 0.00 MiB
      Poisson: 0.00 MiB
      vbar: 0.12 MiB
    Wavefunctions: 385.50 MiB
      Arrays psit_nG: 273.23 MiB
      Eigensolver: 103.90 MiB
      Projections: 0.79 MiB
      Projectors: 1.58 MiB
      PW-descriptor: 6.00 MiB

Total number of cores used: 16
Parallelization over k-points: 2
Domain decomposition: 2 x 2 x 2

Number of atoms: 29
Number of atomic orbitals: 332
Number of bands in calculation: 270
Number of valence electrons: 442
Bands to converge: occupied

... initialized

Initializing position-dependent things.

Density initialized from atomic densities
Creating initial wave functions:
  270 bands from LCAO basis set

                                            
                                            
                                            
                                            
                                            
                                            
                                            
       O                                    
                 Pt     Pt     Pt           
       C                                    
            Pt    PPt    PPt   Pt           
       Pt    PPt    PPt    Pt               
                                            
        Pt     Pt    PPt    Pt    Pt        
                                            
                Pt     Pt     Pt            
           Pt     Pt     Pt                 
                                            
                                            
                                            
                                            

Positions:
   0 Pt     1.403607    0.810373    6.000000    ( 0.0000,  0.0000,  0.0000)
   1 Pt     4.210821    0.810373    6.000000    ( 0.0000,  0.0000,  0.0000)
   2 Pt     7.018035    0.810373    6.000000    ( 0.0000,  0.0000,  0.0000)
   3 Pt     2.807214    3.241491    6.000000    ( 0.0000,  0.0000,  0.0000)
   4 Pt     5.614428    3.241491    6.000000    ( 0.0000,  0.0000,  0.0000)
   5 Pt     8.421642    3.241491    6.000000    ( 0.0000,  0.0000,  0.0000)
   6 Pt     4.210821    5.672610    6.000000    ( 0.0000,  0.0000,  0.0000)
   7 Pt     7.018035    5.672610    6.000000    ( 0.0000,  0.0000,  0.0000)
   8 Pt     9.825249    5.672610    6.000000    ( 0.0000,  0.0000,  0.0000)
   9 Pt    -0.000000    1.620746    8.292081    ( 0.0000,  0.0000,  0.0000)
  10 Pt     2.807214    1.620746    8.292081    ( 0.0000,  0.0000,  0.0000)
  11 Pt     5.614428    1.620746    8.292081    ( 0.0000,  0.0000,  0.0000)
  12 Pt     1.403607    4.051864    8.292081    ( 0.0000,  0.0000,  0.0000)
  13 Pt     4.210821    4.051864    8.292081    ( 0.0000,  0.0000,  0.0000)
  14 Pt     7.018035    4.051864    8.292081    ( 0.0000,  0.0000,  0.0000)
  15 Pt     2.807214    6.482983    8.292081    ( 0.0000,  0.0000,  0.0000)
  16 Pt     5.614428    6.482983    8.292081    ( 0.0000,  0.0000,  0.0000)
  17 Pt     8.421642    6.482983    8.292081    ( 0.0000,  0.0000,  0.0000)
  18 Pt     0.000000    0.000000   10.584161    ( 0.0000,  0.0000,  0.0000)
  19 Pt     2.807214    0.000000   10.584161    ( 0.0000,  0.0000,  0.0000)
  20 Pt     5.614428    0.000000   10.584161    ( 0.0000,  0.0000,  0.0000)
  21 Pt     1.403607    2.431119   10.584161    ( 0.0000,  0.0000,  0.0000)
  22 Pt     4.210821    2.431119   10.584161    ( 0.0000,  0.0000,  0.0000)
  23 Pt     7.018035    2.431119   10.584161    ( 0.0000,  0.0000,  0.0000)
  24 Pt     2.807214    4.862237   10.584161    ( 0.0000,  0.0000,  0.0000)
  25 Pt     5.614428    4.862237   10.584161    ( 0.0000,  0.0000,  0.0000)
  26 Pt     8.421642    4.862237   10.584161    ( 0.0000,  0.0000,  0.0000)
  27 O      0.000000    0.000000   13.734501    ( 0.0000,  0.0000,  0.0000)
  28 C      0.000000    0.000000   12.584161    ( 0.0000,  0.0000,  0.0000)

Unit cell:
           periodic     x           y           z      points  spacing
  1. axis:    yes    8.421642    0.000000    0.000000    42     0.1737
  2. axis:    yes    4.210821    7.293356    0.000000    42     0.1737
  3. axis:    no     0.000000    0.000000   16.584161    84     0.1974

  Lengths:   8.421642   8.421642  16.584161
  Angles:   90.000000  90.000000  60.000000

Effective grid spacing dv^(1/3) = 0.1901

     iter     time        total  log10-change:
                         energy  eigst   dens
iter:   1 10:00:23  -189.193112
iter:   2 10:00:31  -186.506883  -1.16  -1.40
iter:   3 10:00:39  -182.666751  -1.79  -1.44
iter:   4 10:00:47  -183.177023  -1.67  -1.54
iter:   5 10:00:55  -177.961075  -1.90  -1.58
iter:   6 10:01:02  -177.714160  -2.52  -1.92
iter:   7 10:01:10  -177.573644  -2.77  -2.07
iter:   8 10:01:18  -177.556927c -3.33  -2.22
iter:   9 10:01:26  -177.469002c -3.09  -2.27
iter:  10 10:01:34  -177.470848c -3.37  -2.45
iter:  11 10:01:42  -177.429846c -3.76  -2.60
iter:  12 10:01:50  -177.419635c -3.80  -2.82
iter:  13 10:01:57  -177.419640c -4.15  -3.01
iter:  14 10:02:05  -177.419506c -4.84  -3.15
iter:  15 10:02:13  -177.420781c -5.00  -3.18
iter:  16 10:02:21  -177.422984c -4.89  -3.31
iter:  17 10:02:29  -177.423398c -5.10  -3.56
iter:  18 10:02:37  -177.423438c -5.84  -3.79
iter:  19 10:02:45  -177.423098c -5.91  -3.87
iter:  20 10:02:52  -177.422876c -6.24  -4.01c
iter:  21 10:03:00  -177.422764c -6.65  -4.13c
iter:  22 10:03:08  -177.422733c -7.26  -4.22c
iter:  23 10:03:16  -177.422687c -6.69  -4.25c
iter:  24 10:03:24  -177.422661c -7.24  -4.43c
iter:  25 10:03:32  -177.422634c -7.31  -4.40c
iter:  26 10:03:40  -177.422617c -7.81c -4.66c

Converged after 26 iterations.

Dipole moment: (-0.201463, -0.116314, 0.189769) |e|*Ang

Energy contributions relative to reference atoms: (reference = -13513203.275138)

Kinetic:       -299.215706
Potential:     +224.896628
External:        +0.000000
XC:             -87.580480
Entropy (-ST):   -1.758799
Local:          -14.643659
--------------------------
Free energy:   -178.302016
Extrapolated:  -177.422617

Showing only first 2 kpts
 Kpt  Band  Eigenvalues  Occupancy
  0   219      1.53443    1.41312
  0   220      1.55659    1.31721
  0   221      1.56914    1.25972
  0   222      1.59665    1.12753

  1   219      1.37771    1.84052
  1   220      1.42021    1.76595
  1   221      1.43673    1.72959
  1   222      1.47737    1.61979


Fermi level: 1.62230

No gap

Forces in eV/Ang:
  0 Pt    0.00988    0.00570   -0.01869
  1 Pt    0.00000    0.01226   -0.07800
  2 Pt   -0.00988    0.00570   -0.01869
  3 Pt    0.01062   -0.00613   -0.07800
  4 Pt   -0.01062   -0.00613   -0.07800
  5 Pt    0.00000    0.02173   -0.15651
  6 Pt    0.00000   -0.01140   -0.01869
  7 Pt    0.01882   -0.01086   -0.15651
  8 Pt   -0.01882   -0.01086   -0.15651
  9 Pt    0.00000   -0.00531    0.04510
 10 Pt    0.01839    0.01062   -0.00622
 11 Pt   -0.01839    0.01062   -0.00622
 12 Pt    0.00997   -0.00576   -0.04275
 13 Pt   -0.00000   -0.02123   -0.00622
 14 Pt   -0.00997   -0.00576   -0.04275
 15 Pt    0.00460    0.00266    0.04510
 16 Pt   -0.00460    0.00266    0.04510
 17 Pt   -0.00000    0.01152   -0.04275
 18 Pt   -0.00000   -0.00000    2.77691
 19 Pt    0.37039    0.00026   -0.01880
 20 Pt   -0.37039    0.00026   -0.01880
 21 Pt    0.18542    0.32063   -0.01880
 22 Pt    0.00000   -0.00000    0.06355
 23 Pt   -0.18542    0.32063   -0.01880
 24 Pt   -0.18497   -0.32090   -0.01880
 25 Pt    0.18497   -0.32090   -0.01880
 26 Pt    0.00000   -0.00000    0.06248
 27 O    -0.00000    0.00000   -0.09854
 28 C    -0.00000   -0.00000   -1.87657

System changes: positions 

Initializing position-dependent things.

Density initialized from wave functions
                                            
                                            
                                            
                                            
                                            
                                            
                                            
       O                                    
                 Pt     Pt     Pt           
       C                                    
            Pt    PPt    PPt   Pt           
       Pt    PPt    PPt    Pt               
                                            
        Pt     Pt    PPt    Pt    Pt        
                                            
                Pt     Pt     Pt            
           Pt     Pt     Pt                 
                                            
                                            
                                            
                                            

Positions:
   0 Pt     1.404739    0.811026    5.997858    ( 0.0000,  0.0000,  0.0000)
   1 Pt     4.210821    0.811778    5.991062    ( 0.0000,  0.0000,  0.0000)
   2 Pt     7.016903    0.811026    5.997858    ( 0.0000,  0.0000,  0.0000)
   3 Pt     2.808430    3.240789    5.991062    ( 0.0000,  0.0000,  0.0000)
   4 Pt     5.613211    3.240789    5.991062    ( 0.0000,  0.0000,  0.0000)
   5 Pt     8.421642    3.243981    5.982065    ( 0.0000,  0.0000,  0.0000)
   6 Pt     4.210821    5.671303    5.997858    ( 0.0000,  0.0000,  0.0000)
   7 Pt     7.020191    5.671365    5.982065    ( 0.0000,  0.0000,  0.0000)
   8 Pt     9.823092    5.671365    5.982065    ( 0.0000,  0.0000,  0.0000)
   9 Pt    -0.000000    1.620137    8.297248    ( 0.0000,  0.0000,  0.0000)
  10 Pt     2.809321    1.621962    8.291368    ( 0.0000,  0.0000,  0.0000)
  11 Pt     5.612321    1.621962    8.291368    ( 0.0000,  0.0000,  0.0000)
  12 Pt     1.404750    4.051204    8.287181    ( 0.0000,  0.0000,  0.0000)
  13 Pt     4.210821    4.049431    8.291368    ( 0.0000,  0.0000,  0.0000)
  14 Pt     7.016892    4.051204    8.287181    ( 0.0000,  0.0000,  0.0000)
  15 Pt     2.807741    6.483287    8.297248    ( 0.0000,  0.0000,  0.0000)
  16 Pt     5.613900    6.483287    8.297248    ( 0.0000,  0.0000,  0.0000)
  17 Pt     8.421642    6.484303    8.287181    ( 0.0000,  0.0000,  0.0000)
  18 Pt    -0.000000   -0.000000   10.902378    ( 0.0000,  0.0000,  0.0000)
  19 Pt     2.849658    0.000030   10.582007    ( 0.0000,  0.0000,  0.0000)
  20 Pt     5.571984    0.000030   10.582007    ( 0.0000,  0.0000,  0.0000)
  21 Pt     1.424855    2.467861   10.582007    ( 0.0000,  0.0000,  0.0000)
  22 Pt     4.210821    2.431119   10.591444    ( 0.0000,  0.0000,  0.0000)
  23 Pt     6.996787    2.467861   10.582007    ( 0.0000,  0.0000,  0.0000)
  24 Pt     2.786018    4.825464   10.582007    ( 0.0000,  0.0000,  0.0000)
  25 Pt     5.635624    4.825464   10.582007    ( 0.0000,  0.0000,  0.0000)
  26 Pt     8.421642    4.862237   10.591321    ( 0.0000,  0.0000,  0.0000)
  27 O     -0.000000    0.000000   13.723210    ( 0.0000,  0.0000,  0.0000)
  28 C     -0.000000   -0.000000   12.369118    ( 0.0000,  0.0000,  0.0000)

Unit cell:
           periodic     x           y           z      points  spacing
  1. axis:    yes    8.421642    0.000000    0.000000    42     0.1737
  2. axis:    yes    4.210821    7.293356    0.000000    42     0.1737
  3. axis:    no     0.000000    0.000000   16.584161    84     0.1974

  Lengths:   8.421642   8.421642  16.584161
  Angles:   90.000000  90.000000  60.000000

Effective grid spacing dv^(1/3) = 0.1901

     iter     time        total  log10-change:
                         energy  eigst   dens
iter:   1 10:03:50  -179.469462  -0.86
iter:   2 10:03:58  -178.105091  -1.77  -1.79
iter:   3 10:04:06  -176.148822  -2.19  -1.80
iter:   4 10:04:13  -173.847463  -2.36  -1.89
iter:   5 10:04:21  -173.310981  -2.75  -2.22
iter:   6 10:04:29  -173.215884  -3.46  -2.30
iter:   7 10:04:37  -173.098979c -2.93  -2.41
iter:   8 10:04:45  -173.016267c -3.23  -2.55
iter:   9 10:04:53  -172.986138c -3.66  -2.68
iter:  10 10:05:01  -172.991292c -4.08  -2.80
iter:  11 10:05:08  -172.970405c -4.27  -2.78
iter:  12 10:05:16  -172.965561c -4.07  -2.98
iter:  13 10:05:24  -172.964692c -4.92  -3.24
iter:  14 10:05:32  -172.964537c -4.99  -3.34
iter:  15 10:05:40  -172.965335c -5.09  -3.48
iter:  16 10:05:48  -172.965593c -5.31  -3.58
iter:  17 10:05:55  -172.965524c -5.93  -3.84
iter:  18 10:06:03  -172.965439c -6.14  -3.81
iter:  19 10:06:11  -172.965336c -5.91  -3.93
iter:  20 10:06:19  -172.965371c -6.36  -4.04c
iter:  21 10:06:27  -172.965387c -6.75  -4.25c
iter:  22 10:06:35  -172.965331c -6.69  -4.34c
iter:  23 10:06:43  -172.965303c -7.22  -4.50c
iter:  24 10:06:51  -172.965280c -7.51c -4.47c

Converged after 24 iterations.

Dipole moment: (-0.102551, -0.059208, -0.537166) |e|*Ang

Energy contributions relative to reference atoms: (reference = -13513203.275138)

Kinetic:       -261.426557
Potential:     +194.265235
External:        +0.000000
XC:             -90.028532
Entropy (-ST):   -1.711490
Local:          -14.919681
--------------------------
Free energy:   -173.821025
Extrapolated:  -172.965280

Showing only first 2 kpts
 Kpt  Band  Eigenvalues  Occupancy
  0   219      1.26589    1.44218
  0   220      1.27915    1.38731
  0   221      1.30117    1.28998
  0   222      1.34391    1.08463

  1   219      1.13748    1.80653
  1   220      1.16080    1.76176
  1   221      1.17345    1.73392
  1   222      1.19981    1.66702


Fermi level: 1.36088

No gap

Forces in eV/Ang:
  0 Pt   -0.02331   -0.01346    0.03991
  1 Pt    0.00000   -0.02333   -0.04812
  2 Pt    0.02331   -0.01346    0.03991
  3 Pt   -0.02020    0.01166   -0.04812
  4 Pt    0.02020    0.01166   -0.04812
  5 Pt   -0.00000    0.08896   -0.13895
  6 Pt   -0.00000    0.02692    0.03991
  7 Pt    0.07704   -0.04448   -0.13895
  8 Pt   -0.07704   -0.04448   -0.13895
  9 Pt   -0.00000   -0.20900    0.38429
 10 Pt   -0.07724   -0.04460   -0.03949
 11 Pt    0.07724   -0.04460   -0.03949
 12 Pt   -0.06593    0.03807   -0.18137
 13 Pt    0.00000    0.08919   -0.03949
 14 Pt    0.06593    0.03807   -0.18137
 15 Pt    0.18100    0.10450    0.38429
 16 Pt   -0.18100    0.10450    0.38429
 17 Pt    0.00000   -0.07613   -0.18137
 18 Pt   -0.00000   -0.00000  -28.25795
 19 Pt   -0.22574   -0.02816   -0.03248
 20 Pt    0.22574   -0.02816   -0.03248
 21 Pt   -0.13726   -0.18142   -0.03248
 22 Pt    0.00000   -0.00000    0.05984
 23 Pt    0.13726   -0.18142   -0.03248
 24 Pt    0.08848    0.20958   -0.03248
 25 Pt   -0.08848    0.20958   -0.03248
 26 Pt    0.00000    0.00000    0.05085
 27 O     0.00000    0.00000   -8.87653
 28 C     0.00000    0.00000   37.12437

System changes: positions 

Initializing position-dependent things.

Density initialized from wave functions
                                            
                                            
                                            
                                            
                                            
                                            
                                            
       O                                    
       C         Pt     Pt     Pt           
            Pt     Pt     Pt                
                  Pt     Pt    Pt           
       Pt    PPt    PPt    Pt               
                                            
        Pt     Pt    PPt    Pt    Pt        
                                            
                Pt     Pt     Pt            
           Pt     Pt     Pt                 
                                            
                                            
                                            
                                            

Positions:
   0 Pt     1.405619    0.811535    5.996137    ( 0.0000,  0.0000,  0.0000)
   1 Pt     4.210821    0.812945    5.981024    ( 0.0000,  0.0000,  0.0000)
   2 Pt     7.016023    0.811535    5.996137    ( 0.0000,  0.0000,  0.0000)
   3 Pt     2.809441    3.240205    5.981024    ( 0.0000,  0.0000,  0.0000)
   4 Pt     5.612200    3.240205    5.981024    ( 0.0000,  0.0000,  0.0000)
   5 Pt     8.421642    3.247781    5.961362    ( 0.0000,  0.0000,  0.0000)
   6 Pt     4.210821    5.670287    5.996137    ( 0.0000,  0.0000,  0.0000)
   7 Pt     7.023482    5.669465    5.961362    ( 0.0000,  0.0000,  0.0000)
   8 Pt     9.819802    5.669465    5.961362    ( 0.0000,  0.0000,  0.0000)
   9 Pt    -0.000000    1.616721    8.307786    ( 0.0000,  0.0000,  0.0000)
  10 Pt     2.810511    1.622649    8.290094    ( 0.0000,  0.0000,  0.0000)
  11 Pt     5.611130    1.622649    8.290094    ( 0.0000,  0.0000,  0.0000)
  12 Pt     1.405076    4.051016    8.279621    ( 0.0000,  0.0000,  0.0000)
  13 Pt     4.210821    4.048057    8.290094    ( 0.0000,  0.0000,  0.0000)
  14 Pt     7.016566    4.051016    8.279621    ( 0.0000,  0.0000,  0.0000)
  15 Pt     2.810700    6.484995    8.307786    ( 0.0000,  0.0000,  0.0000)
  16 Pt     5.610942    6.484995    8.307786    ( 0.0000,  0.0000,  0.0000)
  17 Pt     8.421642    6.484679    8.279621    ( 0.0000,  0.0000,  0.0000)
  18 Pt    -0.000000   -0.000000   10.861718    ( 0.0000,  0.0000,  0.0000)
  19 Pt     2.891290   -0.000312   10.579311    ( 0.0000,  0.0000,  0.0000)
  20 Pt     5.530352   -0.000312   10.579311    ( 0.0000,  0.0000,  0.0000)
  21 Pt     1.445375    2.504087   10.579311    ( 0.0000,  0.0000,  0.0000)
  22 Pt     4.210821    2.431119   10.599896    ( 0.0000,  0.0000,  0.0000)
  23 Pt     6.976267    2.504087   10.579311    ( 0.0000,  0.0000,  0.0000)
  24 Pt     2.764905    4.789581   10.579311    ( 0.0000,  0.0000,  0.0000)
  25 Pt     5.656736    4.789581   10.579311    ( 0.0000,  0.0000,  0.0000)
  26 Pt     8.421642    4.862237   10.599525    ( 0.0000,  0.0000,  0.0000)
  27 O     -0.000000    0.000000   13.593457    ( 0.0000,  0.0000,  0.0000)
  28 C     -0.000000   -0.000000   12.636008    ( 0.0000,  0.0000,  0.0000)

Unit cell:
           periodic     x           y           z      points  spacing
  1. axis:    yes    8.421642    0.000000    0.000000    42     0.1737
  2. axis:    yes    4.210821    7.293356    0.000000    42     0.1737
  3. axis:    no     0.000000    0.000000   16.584161    84     0.1974

  Lengths:   8.421642   8.421642  16.584161
  Angles:   90.000000  90.000000  60.000000

Effective grid spacing dv^(1/3) = 0.1901

     iter     time        total  log10-change:
                         energy  eigst   dens
iter:   1 10:07:01  -184.696292  -0.82
iter:   2 10:07:09  -183.799609  -1.70  -1.71
iter:   3 10:07:17  -179.789652  -2.02  -1.72
iter:   4 10:07:25  -176.201844  -2.12  -1.86
iter:   5 10:07:33  -175.036872  -1.93  -2.20
iter:   6 10:07:40  -174.744389  -3.04  -2.24
iter:   7 10:07:48  -174.413070  -2.72  -2.29
iter:   8 10:07:56  -174.307479  -3.05  -2.43
iter:   9 10:08:04  -174.314309c -3.46  -2.58
iter:  10 10:08:12  -174.194016c -3.51  -2.44
iter:  11 10:08:20  -174.174423c -3.78  -2.78
iter:  12 10:08:28  -174.161075c -4.26  -2.98
iter:  13 10:08:35  -174.158376c -4.67  -3.14
iter:  14 10:08:43  -174.157148c -5.05  -3.28
iter:  15 10:08:51  -174.158017c -5.43  -3.40
iter:  16 10:08:59  -174.158084c -5.09  -3.36
iter:  17 10:09:07  -174.158381c -5.45  -3.45
iter:  18 10:09:15  -174.158632c -5.73  -3.70
iter:  19 10:09:23  -174.158519c -6.07  -3.80
iter:  20 10:09:31  -174.158258c -6.23  -4.05c
iter:  21 10:09:39  -174.158170c -6.44  -4.23c
iter:  22 10:09:47  -174.158090c -7.12  -4.25c
iter:  23 10:09:54  -174.158137c -7.24  -4.34c
iter:  24 10:10:02  -174.158192c -7.14  -4.50c
iter:  25 10:10:10  -174.158185c -7.53c -4.61c

Converged after 25 iterations.

Dipole moment: (0.114811, 0.066286, 0.408492) |e|*Ang

Energy contributions relative to reference atoms: (reference = -13513203.275138)

Kinetic:       -261.440656
Potential:     +196.854484
External:        +0.000000
XC:             -93.960680
Entropy (-ST):   -1.710675
Local:          -14.755994
--------------------------
Free energy:   -175.013522
Extrapolated:  -174.158185

Showing only first 2 kpts
 Kpt  Band  Eigenvalues  Occupancy
  0   219      1.58784    1.43819
  0   220      1.59601    1.40460
  0   221      1.60820    1.35240
  0   222      1.66514    1.08329

  1   219      1.45276    1.81622
  1   220      1.49014    1.74361
  1   221      1.49888    1.72341
  1   222      1.52557    1.65349


Fermi level: 1.68184

No gap

Forces in eV/Ang:
  0 Pt   -0.04086   -0.02359    0.07108
  1 Pt   -0.00000   -0.01321   -0.02809
  2 Pt    0.04086   -0.02359    0.07108
  3 Pt   -0.01144    0.00661   -0.02809
  4 Pt    0.01144    0.00661   -0.02809
  5 Pt    0.00000    0.00615    0.02555
  6 Pt   -0.00000    0.04718    0.07108
  7 Pt    0.00533   -0.00308    0.02555
  8 Pt   -0.00533   -0.00308    0.02555
  9 Pt   -0.00000   -0.14923    0.39873
 10 Pt   -0.10063   -0.05810   -0.08444
 11 Pt    0.10063   -0.05810   -0.08444
 12 Pt   -0.11957    0.06903   -0.33045
 13 Pt   -0.00000    0.11619   -0.08444
 14 Pt    0.11957    0.06903   -0.33045
 15 Pt    0.12923    0.07461    0.39873
 16 Pt   -0.12923    0.07461    0.39873
 17 Pt    0.00000   -0.13806   -0.33045
 18 Pt   -0.00000   -0.00000   -3.60505
 19 Pt   -0.85070   -0.02309    0.06142
 20 Pt    0.85070   -0.02309    0.06142
 21 Pt   -0.44534   -0.72519    0.06142
 22 Pt    0.00000   -0.00000    0.10364
 23 Pt    0.44534   -0.72519    0.06142
 24 Pt    0.40536    0.74827    0.06142
 25 Pt   -0.40536    0.74827    0.06142
 26 Pt   -0.00000    0.00000    0.05456
 27 O    -0.00000    0.00000   42.76574
 28 C    -0.00000    0.00000  -39.83218

System changes: positions 

Initializing position-dependent things.

Density initialized from wave functions
                                            
                                            
                                            
                                            
                                            
                                            
                                            
       O                                    
                                            
       C        Pt      Pt     Pt           
            Pt     Pt     Pt                
       Pt     Pt  Pt Pt  Pt     Pt          
             Pt     Pt     Pt               
        Pt     Pt     Pt                    
                     Pt     Pt    Pt        
                Pt     Pt     Pt            
                                            
           Pt     Pt     Pt                 
                                            
                                            
                                            
                                            

Positions:
   0 Pt     1.406922    0.812287    5.993500    ( 0.0000,  0.0000,  0.0000)
   1 Pt     4.210821    0.815128    5.961242    ( 0.0000,  0.0000,  0.0000)
   2 Pt     7.014719    0.812287    5.993500    ( 0.0000,  0.0000,  0.0000)
   3 Pt     2.811332    3.239114    5.961242    ( 0.0000,  0.0000,  0.0000)
   4 Pt     5.610310    3.239114    5.961242    ( 0.0000,  0.0000,  0.0000)
   5 Pt     8.421642    3.255036    5.921630    ( 0.0000,  0.0000,  0.0000)
   6 Pt     4.210821    5.668782    5.993500    ( 0.0000,  0.0000,  0.0000)
   7 Pt     7.029765    5.665838    5.921630    ( 0.0000,  0.0000,  0.0000)
   8 Pt     9.813518    5.665838    5.921630    ( 0.0000,  0.0000,  0.0000)
   9 Pt    -0.000000    1.608863    8.331979    ( 0.0000,  0.0000,  0.0000)
  10 Pt     2.811864    1.623430    8.286732    ( 0.0000,  0.0000,  0.0000)
  11 Pt     5.609778    1.623430    8.286732    ( 0.0000,  0.0000,  0.0000)
  12 Pt     1.404495    4.051352    8.261507    ( 0.0000,  0.0000,  0.0000)
  13 Pt     4.210821    4.046495    8.286732    ( 0.0000,  0.0000,  0.0000)
  14 Pt     7.017147    4.051352    8.261507    ( 0.0000,  0.0000,  0.0000)
  15 Pt     2.817505    6.488924    8.331979    ( 0.0000,  0.0000,  0.0000)
  16 Pt     5.604137    6.488924    8.331979    ( 0.0000,  0.0000,  0.0000)
  17 Pt     8.421642    6.484008    8.261507    ( 0.0000,  0.0000,  0.0000)
  18 Pt    -0.000000   -0.000000   10.812947    ( 0.0000,  0.0000,  0.0000)
  19 Pt     2.963213   -0.001175   10.574846    ( 0.0000,  0.0000,  0.0000)
  20 Pt     5.458429   -0.001175   10.574846    ( 0.0000,  0.0000,  0.0000)
  21 Pt     1.480589    2.566805   10.574846    ( 0.0000,  0.0000,  0.0000)
  22 Pt     4.210821    2.431119   10.617431    ( 0.0000,  0.0000,  0.0000)
  23 Pt     6.941053    2.566805   10.574846    ( 0.0000,  0.0000,  0.0000)
  24 Pt     2.728197    4.727726   10.574846    ( 0.0000,  0.0000,  0.0000)
  25 Pt     5.693445    4.727726   10.574846    ( 0.0000,  0.0000,  0.0000)
  26 Pt     8.421642    4.862237   10.616031    ( 0.0000,  0.0000,  0.0000)
  27 O     -0.000000    0.000000   13.858925    ( 0.0000,  0.0000,  0.0000)
  28 C     -0.000000   -0.000000   12.599743    ( 0.0000,  0.0000,  0.0000)

Unit cell:
           periodic     x           y           z      points  spacing
  1. axis:    yes    8.421642    0.000000    0.000000    42     0.1737
  2. axis:    yes    4.210821    7.293356    0.000000    42     0.1737
  3. axis:    no     0.000000    0.000000   16.584161    84     0.1974

  Lengths:   8.421642   8.421642  16.584161
  Angles:   90.000000  90.000000  60.000000

Effective grid spacing dv^(1/3) = 0.1901

     iter     time        total  log10-change:
                         energy  eigst   dens
iter:   1 10:10:20  -214.216987  -0.35
iter:   2 10:10:28  -202.927032  -1.17  -1.46
iter:   3 10:10:36  -185.436728  -1.43  -1.40
iter:   4 10:10:44  -179.702102  -1.60  -1.63
iter:   5 10:10:52  -177.450867  -2.70  -1.92
iter:   6 10:11:00  -177.163054  -2.86  -2.17
iter:   7 10:11:08  -177.062540  -2.76  -2.27
iter:   8 10:11:16  -176.829446  -2.68  -2.35
iter:   9 10:11:24  -176.675861  -3.38  -2.56
iter:  10 10:11:31  -176.602134  -3.52  -2.65
iter:  11 10:11:39  -176.592857c -4.03  -2.83
iter:  12 10:11:47  -176.595300c -4.87  -2.97
iter:  13 10:11:55  -176.590189c -4.62  -2.97
iter:  14 10:12:03  -176.590484c -4.93  -3.21
iter:  15 10:12:11  -176.591960c -5.32  -3.36
iter:  16 10:12:18  -176.593215c -5.43  -3.48
iter:  17 10:12:26  -176.593499c -5.42  -3.66
iter:  18 10:12:34  -176.594087c -5.84  -3.72
iter:  19 10:12:42  -176.593283c -6.12  -3.71
iter:  20 10:12:50  -176.593061c -6.38  -3.79
iter:  21 10:12:58  -176.592826c -6.39  -3.95
iter:  22 10:13:05  -176.592711c -6.93  -4.14c
iter:  23 10:13:13  -176.592392c -6.80  -4.24c
iter:  24 10:13:21  -176.592191c -7.23  -4.54c
iter:  25 10:13:29  -176.592200c -7.61c -4.57c

Converged after 25 iterations.

Dipole moment: (0.498118, 0.287589, -0.155993) |e|*Ang

Energy contributions relative to reference atoms: (reference = -13513203.275138)

Kinetic:       -305.649243
Potential:     +229.821823
External:        +0.000000
XC:             -85.273349
Entropy (-ST):   -1.697051
Local:          -14.642906
--------------------------
Free energy:   -177.440726
Extrapolated:  -176.592200

Showing only first 2 kpts
 Kpt  Band  Eigenvalues  Occupancy
  0   219      1.37551    1.51331
  0   220      1.38658    1.47143
  0   221      1.41241    1.36507
  0   222      1.47091    1.08999

  1   219      1.28010    1.77957
  1   220      1.29946    1.73864
  1   221      1.31211    1.70853
  1   222      1.34091    1.62929


Fermi level: 1.48896

No gap

Forces in eV/Ang:
  0 Pt   -0.08218   -0.04744    0.12010
  1 Pt    0.00000   -0.01014    0.00823
  2 Pt    0.08218   -0.04744    0.12010
  3 Pt   -0.00878    0.00507    0.00823
  4 Pt    0.00878    0.00507    0.00823
  5 Pt    0.00000   -0.09818    0.24383
  6 Pt    0.00000    0.09489    0.12010
  7 Pt   -0.08503    0.04909    0.24383
  8 Pt    0.08503    0.04909    0.24383
  9 Pt    0.00000   -0.01105    0.28294
 10 Pt   -0.12976   -0.07492   -0.14780
 11 Pt    0.12976   -0.07492   -0.14780
 12 Pt   -0.21555    0.12445   -0.54442
 13 Pt    0.00000    0.14984   -0.14780
 14 Pt    0.21555    0.12445   -0.54442
 15 Pt    0.00957    0.00553    0.28294
 16 Pt   -0.00957    0.00553    0.28294
 17 Pt   -0.00000   -0.24889   -0.54442
 18 Pt   -0.00000   -0.00000   -1.51370
 19 Pt   -2.16815   -0.01573    0.10526
 20 Pt    2.16815   -0.01573    0.10526
 21 Pt   -1.09769   -1.86981    0.10526
 22 Pt    0.00000   -0.00000    0.13074
 23 Pt    1.09769   -1.86981    0.10526
 24 Pt    1.07045    1.88553    0.10526
 25 Pt   -1.07045    1.88553    0.10526
 26 Pt   -0.00000    0.00000    0.02990
 27 O     0.00000    0.00000   -7.32815
 28 C     0.00000   -0.00000    8.17896

System changes: positions 

Initializing position-dependent things.

Density initialized from wave functions
                                            
                                            
                                            
                                            
                                            
                                            
                                            
       O                                    
                 Pt     Pt     Pt           
       C                                    
            Pt    PPt    PPt   Pt           
       Pt    PPt    PPt    Pt               
                                            
        Pt     Pt    PPt    Pt    Pt        
                                            
                Pt     Pt     Pt            
           Pt     Pt     Pt                 
                                            
                                            
                                            
                                            

Positions:
   0 Pt     1.404792    0.811057    5.997459    ( 0.0000,  0.0000,  0.0000)
   1 Pt     4.210821    0.812636    5.982139    ( 0.0000,  0.0000,  0.0000)
   2 Pt     7.016850    0.811057    5.997459    ( 0.0000,  0.0000,  0.0000)
   3 Pt     2.809174    3.240360    5.982139    ( 0.0000,  0.0000,  0.0000)
   4 Pt     5.612468    3.240360    5.982139    ( 0.0000,  0.0000,  0.0000)
   5 Pt     8.421642    3.246894    5.965319    ( 0.0000,  0.0000,  0.0000)
   6 Pt     4.210821    5.671242    5.997459    ( 0.0000,  0.0000,  0.0000)
   7 Pt     7.022713    5.669909    5.965319    ( 0.0000,  0.0000,  0.0000)
   8 Pt     9.820570    5.669909    5.965319    ( 0.0000,  0.0000,  0.0000)
   9 Pt    -0.000000    1.616070    8.310564    ( 0.0000,  0.0000,  0.0000)
  10 Pt     2.809003    1.621779    8.288927    ( 0.0000,  0.0000,  0.0000)
  11 Pt     5.612639    1.621779    8.288927    ( 0.0000,  0.0000,  0.0000)
  12 Pt     1.403096    4.052159    8.275537    ( 0.0000,  0.0000,  0.0000)
  13 Pt     4.210821    4.049798    8.288927    ( 0.0000,  0.0000,  0.0000)
  14 Pt     7.018546    4.052159    8.275537    ( 0.0000,  0.0000,  0.0000)
  15 Pt     2.811263    6.485321    8.310564    ( 0.0000,  0.0000,  0.0000)
  16 Pt     5.610378    6.485321    8.310564    ( 0.0000,  0.0000,  0.0000)
  17 Pt     8.421642    6.482393    8.275537    ( 0.0000,  0.0000,  0.0000)
  18 Pt    -0.000000   -0.000000   10.789156    ( 0.0000,  0.0000,  0.0000)
  19 Pt     2.868806   -0.000514   10.580489    ( 0.0000,  0.0000,  0.0000)
  20 Pt     5.552836   -0.000514   10.580489    ( 0.0000,  0.0000,  0.0000)
  21 Pt     1.433958    2.484716   10.580489    ( 0.0000,  0.0000,  0.0000)
  22 Pt     4.210821    2.431119   10.600167    ( 0.0000,  0.0000,  0.0000)
  23 Pt     6.987684    2.484716   10.580489    ( 0.0000,  0.0000,  0.0000)
  24 Pt     2.775973    4.809154   10.580489    ( 0.0000,  0.0000,  0.0000)
  25 Pt     5.645669    4.809154   10.580489    ( 0.0000,  0.0000,  0.0000)
  26 Pt     8.421642    4.862237   10.598991    ( 0.0000,  0.0000,  0.0000)
  27 O     -0.000000    0.000000   13.726473    ( 0.0000,  0.0000,  0.0000)
  28 C     -0.000000   -0.000000   12.556458    ( 0.0000,  0.0000,  0.0000)

Unit cell:
           periodic     x           y           z      points  spacing
  1. axis:    yes    8.421642    0.000000    0.000000    42     0.1737
  2. axis:    yes    4.210821    7.293356    0.000000    42     0.1737
  3. axis:    no     0.000000    0.000000   16.584161    84     0.1974

  Lengths:   8.421642   8.421642  16.584161
  Angles:   90.000000  90.000000  60.000000

Effective grid spacing dv^(1/3) = 0.1901

     iter     time        total  log10-change:
                         energy  eigst   dens
iter:   1 10:13:39  -183.677669  -1.19
iter:   2 10:13:47  -179.752848  -2.07  -1.77
iter:   3 10:13:55  -180.507232  -2.30  -2.00
iter:   4 10:14:03  -178.228608  -2.71  -1.89
iter:   5 10:14:11  -177.773765  -2.65  -2.29
iter:   6 10:14:19  -177.698309  -3.56  -2.50
iter:   7 10:14:26  -177.671518c -3.93  -2.59
iter:   8 10:14:34  -177.643873c -3.87  -2.66
iter:   9 10:14:42  -177.635576c -3.97  -2.86
iter:  10 10:14:50  -177.638313c -4.75  -3.03
iter:  11 10:14:58  -177.632479c -4.75  -2.99
iter:  12 10:15:06  -177.630929c -4.81  -3.17
iter:  13 10:15:14  -177.630455c -5.13  -3.37
iter:  14 10:15:21  -177.630463c -5.92  -3.59
iter:  15 10:15:29  -177.630169c -5.74  -3.64
iter:  16 10:15:37  -177.630233c -6.53  -3.84
iter:  17 10:15:45  -177.629921c -6.20  -3.83
iter:  18 10:15:53  -177.629866c -6.57  -4.02c
iter:  19 10:16:01  -177.629824c -6.79  -4.11c
iter:  20 10:16:09  -177.629835c -6.70  -4.19c
iter:  21 10:16:16  -177.629842c -7.37  -4.32c
iter:  22 10:16:24  -177.629882c -7.05  -4.37c
iter:  23 10:16:32  -177.629856c -7.55c -4.51c

Converged after 23 iterations.

Dipole moment: (0.058748, 0.033918, 0.005009) |e|*Ang

Energy contributions relative to reference atoms: (reference = -13513203.275138)

Kinetic:       -303.860326
Potential:     +228.850501
External:        +0.000000
XC:             -87.141864
Entropy (-ST):   -1.718699
Local:          -14.618818
--------------------------
Free energy:   -178.489206
Extrapolated:  -177.629856

Showing only first 2 kpts
 Kpt  Band  Eigenvalues  Occupancy
  0   219      1.45505    1.43089
  0   220      1.45910    1.41425
  0   221      1.47776    1.33412
  0   222      1.53130    1.07958

  1   219      1.31473    1.82188
  1   220      1.35069    1.75426
  1   221      1.36032    1.73276
  1   222      1.38783    1.66242


Fermi level: 1.54725

No gap

Forces in eV/Ang:
  0 Pt   -0.03871   -0.02235    0.06921
  1 Pt    0.00000   -0.00901   -0.03008
  2 Pt    0.03871   -0.02235    0.06921
  3 Pt   -0.00780    0.00450   -0.03008
  4 Pt    0.00780    0.00450   -0.03008
  5 Pt    0.00000   -0.00766   -0.01275
  6 Pt   -0.00000    0.04470    0.06921
  7 Pt   -0.00663    0.00383   -0.01275
  8 Pt    0.00663    0.00383   -0.01275
  9 Pt    0.00000   -0.10167    0.27115
 10 Pt   -0.04849   -0.02799   -0.05390
 11 Pt    0.04849   -0.02799   -0.05390
 12 Pt   -0.07047    0.04069   -0.19966
 13 Pt    0.00000    0.05599   -0.05390
 14 Pt    0.07047    0.04069   -0.19966
 15 Pt    0.08805    0.05084    0.27115
 16 Pt   -0.08805    0.05084    0.27115
 17 Pt   -0.00000   -0.08137   -0.19966
 18 Pt    0.00000   -0.00000   -2.28687
 19 Pt   -0.42364   -0.01709    0.00335
 20 Pt    0.42364   -0.01709    0.00335
 21 Pt   -0.22662   -0.35834    0.00335
 22 Pt    0.00000    0.00000    0.03819
 23 Pt    0.22662   -0.35834    0.00335
 24 Pt    0.19702    0.37543    0.00335
 25 Pt   -0.19702    0.37543    0.00335
 26 Pt    0.00000    0.00000    0.00091
 27 O     0.00000    0.00000   -1.12820
 28 C     0.00000    0.00000    3.21785

System changes: positions 

Initializing position-dependent things.

Density initialized from wave functions
                                            
                                            
                                            
                                            
                                            
                                            
                                            
       O                                    
                                            
       C         Pt     Pt     Pt           
            Pt     Pt     Pt                
                  Pt     Pt    Pt           
       Pt    PPt    PPt    Pt               
        Pt     Pt     Pt                    
                     Pt     Pt    Pt        
                Pt     Pt     Pt            
                                            
           Pt     Pt     Pt                 
                                            
                                            
                                            
                                            

Positions:
   0 Pt     1.402042    0.809469    6.000150    ( 0.0000,  0.0000,  0.0000)
   1 Pt     4.210821    0.816131    5.943960    ( 0.0000,  0.0000,  0.0000)
   2 Pt     7.019600    0.809469    6.000150    ( 0.0000,  0.0000,  0.0000)
   3 Pt     2.812201    3.238612    5.943960    ( 0.0000,  0.0000,  0.0000)
   4 Pt     5.609441    3.238612    5.943960    ( 0.0000,  0.0000,  0.0000)
   5 Pt     8.421642    3.255244    5.902685    ( 0.0000,  0.0000,  0.0000)
   6 Pt     4.210821    5.674417    6.000150    ( 0.0000,  0.0000,  0.0000)
   7 Pt     7.029945    5.665733    5.902685    ( 0.0000,  0.0000,  0.0000)
   8 Pt     9.813338    5.665733    5.902685    ( 0.0000,  0.0000,  0.0000)
   9 Pt    -0.000000    1.598845    8.377679    ( 0.0000,  0.0000,  0.0000)
  10 Pt     2.803120    1.618382    8.272935    ( 0.0000,  0.0000,  0.0000)
  11 Pt     5.618522    1.618382    8.272935    ( 0.0000,  0.0000,  0.0000)
  12 Pt     1.388175    4.060774    8.205362    ( 0.0000,  0.0000,  0.0000)
  13 Pt     4.210821    4.056591    8.272935    ( 0.0000,  0.0000,  0.0000)
  14 Pt     7.033467    4.060774    8.205362    ( 0.0000,  0.0000,  0.0000)
  15 Pt     2.826181    6.493933    8.377679    ( 0.0000,  0.0000,  0.0000)
  16 Pt     5.595461    6.493933    8.377679    ( 0.0000,  0.0000,  0.0000)
  17 Pt     8.421642    6.465163    8.205362    ( 0.0000,  0.0000,  0.0000)
  18 Pt    -0.000000   -0.000000   10.517052    ( 0.0000,  0.0000,  0.0000)
  19 Pt     2.872691   -0.003336   10.578322    ( 0.0000,  0.0000,  0.0000)
  20 Pt     5.548951   -0.003336   10.578322    ( 0.0000,  0.0000,  0.0000)
  21 Pt     1.433456    2.489491   10.578322    ( 0.0000,  0.0000,  0.0000)
  22 Pt     4.210821    2.431119   10.642681    ( 0.0000,  0.0000,  0.0000)
  23 Pt     6.988186    2.489491   10.578322    ( 0.0000,  0.0000,  0.0000)
  24 Pt     2.771586    4.807201   10.578322    ( 0.0000,  0.0000,  0.0000)
  25 Pt     5.650056    4.807201   10.578322    ( 0.0000,  0.0000,  0.0000)
  26 Pt     8.421642    4.862237   10.633115    ( 0.0000,  0.0000,  0.0000)
  27 O     -0.000000    0.000000   13.914436    ( 0.0000,  0.0000,  0.0000)
  28 C     -0.000000   -0.000000   12.947698    ( 0.0000,  0.0000,  0.0000)

Unit cell:
           periodic     x           y           z      points  spacing
  1. axis:    yes    8.421642    0.000000    0.000000    42     0.1737
  2. axis:    yes    4.210821    7.293356    0.000000    42     0.1737
  3. axis:    no     0.000000    0.000000   16.584161    84     0.1974

  Lengths:   8.421642   8.421642  16.584161
  Angles:   90.000000  90.000000  60.000000

Effective grid spacing dv^(1/3) = 0.1901

     iter     time        total  log10-change:
                         energy  eigst   dens
iter:   1 10:16:42  -181.347191  -0.77
iter:   2 10:16:50  -182.915664  -1.60  -1.66
iter:   3 10:16:58  -176.601748  -2.07  -1.65
iter:   4 10:17:06  -174.751639  -2.36  -1.93
iter:   5 10:17:14  -174.152536  -2.56  -2.16
iter:   6 10:17:22  -173.837270  -3.12  -2.27
iter:   7 10:17:30  -173.717294  -3.29  -2.39
iter:   8 10:17:38  -173.690032c -3.45  -2.49
iter:   9 10:17:46  -173.599434c -3.56  -2.50
iter:  10 10:17:54  -173.577729c -4.03  -2.73
iter:  11 10:18:02  -173.574914c -4.57  -2.93
iter:  12 10:18:10  -173.577097c -4.29  -3.10
iter:  13 10:18:18  -173.575002c -4.93  -3.22
iter:  14 10:18:26  -173.573585c -5.23  -3.34
iter:  15 10:18:34  -173.573242c -5.50  -3.51
iter:  16 10:18:41  -173.573276c -5.76  -3.70
iter:  17 10:18:49  -173.573382c -6.20  -3.70
iter:  18 10:18:57  -173.573232c -6.39  -3.84
iter:  19 10:19:05  -173.573134c -6.40  -4.07c
iter:  20 10:19:13  -173.573106c -7.22  -4.36c
iter:  21 10:19:21  -173.573067c -7.14  -4.43c
iter:  22 10:19:29  -173.573015c -7.46c -4.54c

Converged after 22 iterations.

Dipole moment: (0.471813, 0.272401, 0.601277) |e|*Ang

Energy contributions relative to reference atoms: (reference = -13513203.275138)

Kinetic:       -281.237909
Potential:     +213.179806
External:        +0.000000
XC:             -89.888728
Entropy (-ST):   -1.788545
Local:          -14.731912
--------------------------
Free energy:   -174.467287
Extrapolated:  -173.573015

Showing only first 2 kpts
 Kpt  Band  Eigenvalues  Occupancy
  0   219      1.64638    1.39465
  0   220      1.65570    1.35457
  0   221      1.66802    1.29963
  0   222      1.70367    1.13010

  1   219      1.51331    1.79418
  1   220      1.51445    1.79206
  1   221      1.58214    1.62824
  1   222      1.60020    1.57046


Fermi level: 1.72984

No gap

Forces in eV/Ang:
  0 Pt   -0.10024   -0.05787    0.09360
  1 Pt   -0.00000    0.04146    0.02694
  2 Pt    0.10024   -0.05787    0.09360
  3 Pt    0.03591   -0.02073    0.02694
  4 Pt   -0.03591   -0.02073    0.02694
  5 Pt    0.00000   -0.30119    0.25973
  6 Pt    0.00000    0.11575    0.09360
  7 Pt   -0.26084    0.15060    0.25973
  8 Pt    0.26084    0.15060    0.25973
  9 Pt    0.00000    0.62335   -0.97425
 10 Pt    0.15180    0.08764    0.02695
 11 Pt   -0.15180    0.08764    0.02695
 12 Pt    0.06181   -0.03569    0.19395
 13 Pt   -0.00000   -0.17528    0.02695
 14 Pt   -0.06181   -0.03569    0.19395
 15 Pt   -0.53984   -0.31167   -0.97425
 16 Pt    0.53984   -0.31167   -0.97425
 17 Pt    0.00000    0.07137    0.19395
 18 Pt   -0.00000    0.00000    3.26644
 19 Pt   -0.21508    0.04544   -0.00508
 20 Pt    0.21508    0.04544   -0.00508
 21 Pt   -0.06819   -0.20898   -0.00508
 22 Pt    0.00000    0.00000   -0.28208
 23 Pt    0.06819   -0.20898   -0.00508
 24 Pt    0.14689    0.16354   -0.00508
 25 Pt   -0.14689    0.16354   -0.00508
 26 Pt    0.00000    0.00000   -0.36297
 27 O     0.00000   -0.00000   37.10505
 28 C     0.00000   -0.00000  -38.64507

System changes: positions 

Initializing position-dependent things.

Density initialized from wave functions
                                            
                                            
                                            
                                            
                                            
                                            
                                            
       O                                    
                                            
                 Pt     Pt     Pt           
       C    Pt     Pt     Pt                
                  Pt     Pt    Pt           
       Pt    PPt    PPt    Pt               
                                            
        Pt     Pt    PPt    Pt    Pt        
                                            
                Pt     Pt     Pt            
           Pt     Pt     Pt                 
                                            
                                            
                                            
                                            

Positions:
   0 Pt     1.401747    0.809299    6.001678    ( 0.0000,  0.0000,  0.0000)
   1 Pt     4.210821    0.813292    5.970610    ( 0.0000,  0.0000,  0.0000)
   2 Pt     7.019895    0.809299    6.001678    ( 0.0000,  0.0000,  0.0000)
   3 Pt     2.809742    3.240032    5.970610    ( 0.0000,  0.0000,  0.0000)
   4 Pt     5.611899    3.240032    5.970610    ( 0.0000,  0.0000,  0.0000)
   5 Pt     8.421642    3.247428    5.952064    ( 0.0000,  0.0000,  0.0000)
   6 Pt     4.210821    5.674757    6.001678    ( 0.0000,  0.0000,  0.0000)
   7 Pt     7.023176    5.669642    5.952064    ( 0.0000,  0.0000,  0.0000)
   8 Pt     9.820108    5.669642    5.952064    ( 0.0000,  0.0000,  0.0000)
   9 Pt    -0.000000    1.608731    8.341593    ( 0.0000,  0.0000,  0.0000)
  10 Pt     2.803283    1.618476    8.280053    ( 0.0000,  0.0000,  0.0000)
  11 Pt     5.618359    1.618476    8.280053    ( 0.0000,  0.0000,  0.0000)
  12 Pt     1.392704    4.058159    8.239264    ( 0.0000,  0.0000,  0.0000)
  13 Pt     4.210821    4.056403    8.280053    ( 0.0000,  0.0000,  0.0000)
  14 Pt     7.028937    4.058159    8.239264    ( 0.0000,  0.0000,  0.0000)
  15 Pt     2.817619    6.488990    8.341593    ( 0.0000,  0.0000,  0.0000)
  16 Pt     5.604022    6.488990    8.341593    ( 0.0000,  0.0000,  0.0000)
  17 Pt     8.421642    6.470394    8.239264    ( 0.0000,  0.0000,  0.0000)
  18 Pt    -0.000000   -0.000000   10.642267    ( 0.0000,  0.0000,  0.0000)
  19 Pt     2.814743   -0.001981   10.582829    ( 0.0000,  0.0000,  0.0000)
  20 Pt     5.606899   -0.001981   10.582829    ( 0.0000,  0.0000,  0.0000)
  21 Pt     1.405656    2.438630   10.582829    ( 0.0000,  0.0000,  0.0000)
  22 Pt     4.210821    2.431119   10.616783    ( 0.0000,  0.0000,  0.0000)
  23 Pt     7.015986    2.438630   10.582829    ( 0.0000,  0.0000,  0.0000)
  24 Pt     2.801734    4.856708   10.582829    ( 0.0000,  0.0000,  0.0000)
  25 Pt     5.619908    4.856708   10.582829    ( 0.0000,  0.0000,  0.0000)
  26 Pt     8.421642    4.862237   10.610401    ( 0.0000,  0.0000,  0.0000)
  27 O     -0.000000    0.000000   14.257121    ( 0.0000,  0.0000,  0.0000)
  28 C     -0.000000   -0.000000   12.240920    ( 0.0000,  0.0000,  0.0000)

Unit cell:
           periodic     x           y           z      points  spacing
  1. axis:    yes    8.421642    0.000000    0.000000    42     0.1737
  2. axis:    yes    4.210821    7.293356    0.000000    42     0.1737
  3. axis:    no     0.000000    0.000000   16.584161    84     0.1974

  Lengths:   8.421642   8.421642  16.584161
  Angles:   90.000000  90.000000  60.000000

Effective grid spacing dv^(1/3) = 0.1901

     iter     time        total  log10-change:
                         energy  eigst   dens
iter:   1 10:19:39  -260.227071  +0.54
iter:   2 10:19:47  -225.870486  -0.73  -1.25
iter:   3 10:19:55  -210.593527  -1.30  -1.41
iter:   4 10:20:03  -189.189936  -1.55  -1.51
iter:   5 10:20:11  -174.704364  -1.75  -1.66
iter:   6 10:20:19  -174.710549  -2.52  -1.82
iter:   7 10:20:26  -172.716108  -2.18  -1.91
iter:   8 10:20:34  -173.638150  -2.04  -1.91
iter:   9 10:20:42  -171.092649  -2.75  -2.04
iter:  10 10:20:50  -171.855476  -2.81  -2.04
iter:  11 10:20:58  -171.232219  -2.65  -2.01
iter:  12 10:21:06  -169.732203  -2.73  -1.96
iter:  13 10:21:14  -169.705901  -3.12  -2.37
iter:  14 10:21:21  -169.659696c -4.28  -2.36
iter:  15 10:21:29  -169.567753c -3.79  -2.36
iter:  16 10:21:37  -169.476762c -3.38  -2.53
iter:  17 10:21:45  -169.452282c -4.77  -2.73
iter:  18 10:21:53  -169.461816c -4.79  -2.93
iter:  19 10:22:01  -169.448502c -4.11  -2.83
iter:  20 10:22:09  -169.447497c -4.90  -3.12
iter:  21 10:22:16  -169.442069c -4.29  -3.04
iter:  22 10:22:24  -169.437915c -5.60  -3.18
iter:  23 10:22:32  -169.432771c -4.91  -3.19
iter:  24 10:22:40  -169.432759c -6.12  -3.84
iter:  25 10:22:48  -169.432812c -6.99  -3.93
iter:  26 10:22:56  -169.432365c -6.74  -3.91
iter:  27 10:23:04  -169.432299c -6.97  -4.10c
iter:  28 10:23:11  -169.432141c -6.57  -4.18c
iter:  29 10:23:19  -169.432173c -7.04  -4.26c
iter:  30 10:23:27  -169.432261c -7.00  -4.23c
iter:  31 10:23:35  -169.432196c -7.63c -4.44c

Converged after 31 iterations.

Dipole moment: (0.031992, 0.018470, -1.082452) |e|*Ang

Energy contributions relative to reference atoms: (reference = -13513203.275138)

Kinetic:       -299.434765
Potential:     +227.721173
External:        +0.000000
XC:             -82.092325
Entropy (-ST):   -1.787964
Local:          -14.732296
--------------------------
Free energy:   -170.326178
Extrapolated:  -169.432196

Showing only first 2 kpts
 Kpt  Band  Eigenvalues  Occupancy
  0   219      1.07808    1.47079
  0   220      1.08675    1.43638
  0   221      1.12131    1.28670
  0   222      1.16246    1.08896

  1   219      0.96690    1.78832
  1   220      0.98324    1.75534
  1   221      0.98830    1.74426
  1   222      1.02838    1.64083


Fermi level: 1.18030

No gap

Forces in eV/Ang:
  0 Pt   -0.06074   -0.03507    0.09821
  1 Pt    0.00000    0.01352   -0.01228
  2 Pt    0.06074   -0.03507    0.09821
  3 Pt    0.01171   -0.00676   -0.01228
  4 Pt   -0.01171   -0.00676   -0.01228
  5 Pt    0.00000   -0.12557   -0.03882
  6 Pt    0.00000    0.07014    0.09821
  7 Pt   -0.10874    0.06278   -0.03882
  8 Pt    0.10874    0.06278   -0.03882
  9 Pt    0.00000    0.18018   -0.44144
 10 Pt    0.14044    0.08109    0.05498
 11 Pt   -0.14044    0.08109    0.05498
 12 Pt    0.08129   -0.04693    0.25537
 13 Pt    0.00000   -0.16217    0.05498
 14 Pt   -0.08129   -0.04693    0.25537
 15 Pt   -0.15604   -0.09009   -0.44144
 16 Pt    0.15604   -0.09009   -0.44144
 17 Pt    0.00000    0.09386    0.25537
 18 Pt    0.00000   -0.00000   -8.23185
 19 Pt    0.59491    0.01513   -0.07028
 20 Pt   -0.59491    0.01513   -0.07028
 21 Pt    0.31056    0.50765   -0.07028
 22 Pt    0.00000    0.00000   -0.25626
 23 Pt   -0.31056    0.50765   -0.07028
 24 Pt   -0.28435   -0.52278   -0.07028
 25 Pt    0.28435   -0.52278   -0.07028
 26 Pt    0.00000    0.00000   -0.30000
 27 O     0.00000    0.00000   -5.55860
 28 C    -0.00000   -0.00000   15.03501

System changes: positions 

Initializing position-dependent things.

Density initialized from wave functions
                                            
                                            
                                            
                                            
                                            
                                            
                                            
       O                                    
                                            
       C         Pt     Pt     Pt           
            Pt     Pt     Pt                
                  Pt     Pt    Pt           
       Pt    PPt    PPt    Pt               
        Pt                                  
               Pt    PPt    Pt    Pt        
                                            
                Pt     Pt     Pt            
           Pt     Pt     Pt                 
                                            
                                            
                                            
                                            

Positions:
   0 Pt     1.399683    0.808108    6.002258    ( 0.0000,  0.0000,  0.0000)
   1 Pt     4.210821    0.819033    5.917807    ( 0.0000,  0.0000,  0.0000)
   2 Pt     7.021958    0.808108    6.002258    ( 0.0000,  0.0000,  0.0000)
   3 Pt     2.814714    3.237162    5.917807    ( 0.0000,  0.0000,  0.0000)
   4 Pt     5.606928    3.237162    5.917807    ( 0.0000,  0.0000,  0.0000)
   5 Pt     8.421642    3.258518    5.860995    ( 0.0000,  0.0000,  0.0000)
   6 Pt     4.210821    5.677141    6.002258    ( 0.0000,  0.0000,  0.0000)
   7 Pt     7.032781    5.664096    5.860995    ( 0.0000,  0.0000,  0.0000)
   8 Pt     9.810503    5.664096    5.860995    ( 0.0000,  0.0000,  0.0000)
   9 Pt    -0.000000    1.592802    8.413785    ( 0.0000,  0.0000,  0.0000)
  10 Pt     2.801082    1.617206    8.262683    ( 0.0000,  0.0000,  0.0000)
  11 Pt     5.620559    1.617206    8.262683    ( 0.0000,  0.0000,  0.0000)
  12 Pt     1.379259    4.065921    8.160684    ( 0.0000,  0.0000,  0.0000)
  13 Pt     4.210821    4.058944    8.262683    ( 0.0000,  0.0000,  0.0000)
  14 Pt     7.042383    4.065921    8.160684    ( 0.0000,  0.0000,  0.0000)
  15 Pt     2.831414    6.496955    8.413785    ( 0.0000,  0.0000,  0.0000)
  16 Pt     5.590227    6.496955    8.413785    ( 0.0000,  0.0000,  0.0000)
  17 Pt     8.421642    6.454868    8.160684    ( 0.0000,  0.0000,  0.0000)
  18 Pt    -0.000000   -0.000000   10.476980    ( 0.0000,  0.0000,  0.0000)
  19 Pt     2.881227   -0.004750   10.576545    ( 0.0000,  0.0000,  0.0000)
  20 Pt     5.540415   -0.004750   10.576545    ( 0.0000,  0.0000,  0.0000)
  21 Pt     1.436499    2.497591   10.576545    ( 0.0000,  0.0000,  0.0000)
  22 Pt     4.210821    2.431119   10.669246    ( 0.0000,  0.0000,  0.0000)
  23 Pt     6.985142    2.497591   10.576545    ( 0.0000,  0.0000,  0.0000)
  24 Pt     2.766093    4.800515   10.576545    ( 0.0000,  0.0000,  0.0000)
  25 Pt     5.655548    4.800515   10.576545    ( 0.0000,  0.0000,  0.0000)
  26 Pt     8.421642    4.862237   10.653526    ( 0.0000,  0.0000,  0.0000)
  27 O     -0.000000    0.000000   14.283667    ( 0.0000,  0.0000,  0.0000)
  28 C     -0.000000   -0.000000   12.849003    ( 0.0000,  0.0000,  0.0000)

Unit cell:
           periodic     x           y           z      points  spacing
  1. axis:    yes    8.421642    0.000000    0.000000    42     0.1737
  2. axis:    yes    4.210821    7.293356    0.000000    42     0.1737
  3. axis:    no     0.000000    0.000000   16.584161    84     0.1974

  Lengths:   8.421642   8.421642  16.584161
  Angles:   90.000000  90.000000  60.000000

Effective grid spacing dv^(1/3) = 0.1901

     iter     time        total  log10-change:
                         energy  eigst   dens
iter:   1 10:23:45  -209.601779  -0.34
iter:   2 10:23:53  -204.601145  -0.95  -1.35
iter:   3 10:24:01  -182.045073  -1.50  -1.40
iter:   4 10:24:09  -176.641004  -2.05  -1.72
iter:   5 10:24:17  -175.204944  -2.27  -1.97
iter:   6 10:24:25  -174.961043  -2.47  -2.04
iter:   7 10:24:32  -174.030624  -2.66  -2.05
iter:   8 10:24:40  -173.659494  -2.66  -2.26
iter:   9 10:24:48  -173.513141  -3.22  -2.45
iter:  10 10:24:56  -173.477324c -3.77  -2.55
iter:  11 10:25:04  -173.449768c -3.67  -2.66
iter:  12 10:25:12  -173.449506c -4.25  -2.91
iter:  13 10:25:20  -173.445493c -4.36  -2.99
iter:  14 10:25:28  -173.445730c -4.63  -3.15
iter:  15 10:25:35  -173.444402c -5.15  -3.22
iter:  16 10:25:43  -173.444033c -5.40  -3.34
iter:  17 10:25:51  -173.443782c -5.38  -3.49
iter:  18 10:25:59  -173.443872c -6.16  -3.65
iter:  19 10:26:07  -173.443903c -6.11  -3.73
iter:  20 10:26:15  -173.443941c -6.54  -3.81
iter:  21 10:26:23  -173.443857c -6.41  -3.90
iter:  22 10:26:30  -173.443916c -6.59  -4.00c
iter:  23 10:26:38  -173.443915c -6.70  -4.14c
iter:  24 10:26:46  -173.443977c -6.98  -4.23c
iter:  25 10:26:54  -173.443957c -7.12  -4.23c
iter:  26 10:27:02  -173.443980c -7.57c -4.37c

Converged after 26 iterations.

Dipole moment: (0.573306, 0.330998, -0.270112) |e|*Ang

Energy contributions relative to reference atoms: (reference = -13513203.275138)

Kinetic:       -338.647596
Potential:     +258.652631
External:        +0.000000
XC:             -77.894755
Entropy (-ST):   -1.792373
Local:          -14.658074
--------------------------
Free energy:   -174.340167
Extrapolated:  -173.443980

Showing only first 2 kpts
 Kpt  Band  Eigenvalues  Occupancy
  0   219      1.35879    1.42520
  0   220      1.37694    1.34805
  0   221      1.39227    1.27899
  0   222      1.41847    1.15435

  1   219      1.23161    1.79685
  1   220      1.23735    1.78611
  1   221      1.31205    1.59649
  1   222      1.31853    1.57521


Fermi level: 1.44959

No gap

Forces in eV/Ang:
  0 Pt   -0.12259   -0.07078    0.12548
  1 Pt    0.00000    0.04969    0.06771
  2 Pt    0.12259   -0.07078    0.12548
  3 Pt    0.04303   -0.02484    0.06771
  4 Pt   -0.04303   -0.02484    0.06771
  5 Pt   -0.00000   -0.37093    0.30864
  6 Pt    0.00000    0.14156    0.12548
  7 Pt   -0.32123    0.18546    0.30864
  8 Pt    0.32123    0.18546    0.30864
  9 Pt    0.00000    0.93820   -1.50397
 10 Pt    0.23565    0.13605    0.06754
 11 Pt   -0.23565    0.13605    0.06754
 12 Pt    0.15933   -0.09199    0.39603
 13 Pt   -0.00000   -0.27210    0.06754
 14 Pt   -0.15933   -0.09199    0.39603
 15 Pt   -0.81250   -0.46910   -1.50397
 16 Pt    0.81250   -0.46910   -1.50397
 17 Pt   -0.00000    0.18398    0.39603
 18 Pt    0.00000   -0.00000    4.84315
 19 Pt   -0.15429    0.06120    0.00237
 20 Pt    0.15429    0.06120    0.00237
 21 Pt   -0.02414   -0.16422    0.00237
 22 Pt   -0.00000   -0.00000   -0.47946
 23 Pt    0.02414   -0.16422    0.00237
 24 Pt    0.13014    0.10302    0.00237
 25 Pt   -0.13014    0.10302    0.00237
 26 Pt   -0.00000    0.00000   -0.56066
 27 O     0.00000   -0.00000  -12.02004
 28 C     0.00000   -0.00000    9.69287

System changes: positions 

Initializing position-dependent things.

Density initialized from wave functions
                                            
                                            
                                            
                                            
                                            
                                            
                                            
       O                                    
                                            
       C         Pt     Pt     Pt           
            Pt     Pt     Pt                
                  Pt     Pt    Pt           
       Pt    PPt    PPt    Pt               
        Pt     Pt     Pt                    
                     Pt     Pt    Pt        
                Pt     Pt                   
                              Pt            
           Pt     Pt     Pt                 
                                            
                                            
                                            
                                            

Positions:
   0 Pt     1.403443    0.810278    5.998590    ( 0.0000,  0.0000,  0.0000)
   1 Pt     4.210821    0.814662    5.961981    ( 0.0000,  0.0000,  0.0000)
   2 Pt     7.018199    0.810278    5.998590    ( 0.0000,  0.0000,  0.0000)
   3 Pt     2.810929    3.239347    5.961981    ( 0.0000,  0.0000,  0.0000)
   4 Pt     5.610713    3.239347    5.961981    ( 0.0000,  0.0000,  0.0000)
   5 Pt     8.421642    3.251014    5.930518    ( 0.0000,  0.0000,  0.0000)
   6 Pt     4.210821    5.672799    5.998590    ( 0.0000,  0.0000,  0.0000)
   7 Pt     7.026282    5.667848    5.930518    ( 0.0000,  0.0000,  0.0000)
   8 Pt     9.817002    5.667848    5.930518    ( 0.0000,  0.0000,  0.0000)
   9 Pt    -0.000000    1.609549    8.339319    ( 0.0000,  0.0000,  0.0000)
  10 Pt     2.807884    1.621133    8.282117    ( 0.0000,  0.0000,  0.0000)
  11 Pt     5.613758    1.621133    8.282117    ( 0.0000,  0.0000,  0.0000)
  12 Pt     1.397758    4.055241    8.245049    ( 0.0000,  0.0000,  0.0000)
  13 Pt     4.210821    4.051090    8.282117    ( 0.0000,  0.0000,  0.0000)
  14 Pt     7.023883    4.055241    8.245049    ( 0.0000,  0.0000,  0.0000)
  15 Pt     2.816910    6.488581    8.339319    ( 0.0000,  0.0000,  0.0000)
  16 Pt     5.604731    6.488581    8.339319    ( 0.0000,  0.0000,  0.0000)
  17 Pt     8.421642    6.476230    8.245049    ( 0.0000,  0.0000,  0.0000)
  18 Pt    -0.000000   -0.000000   10.571490    ( 0.0000,  0.0000,  0.0000)
  19 Pt     2.892880   -0.001750   10.577935    ( 0.0000,  0.0000,  0.0000)
  20 Pt     5.528761   -0.001750   10.577935    ( 0.0000,  0.0000,  0.0000)
  21 Pt     1.444925    2.506183   10.577935    ( 0.0000,  0.0000,  0.0000)
  22 Pt     4.210821    2.431119   10.619309    ( 0.0000,  0.0000,  0.0000)
  23 Pt     6.976717    2.506183   10.577935    ( 0.0000,  0.0000,  0.0000)
  24 Pt     2.762865    4.788923   10.577935    ( 0.0000,  0.0000,  0.0000)
  25 Pt     5.658776    4.788923   10.577935    ( 0.0000,  0.0000,  0.0000)
  26 Pt     8.421642    4.862237   10.614282    ( 0.0000,  0.0000,  0.0000)
  27 O     -0.000000    0.000000   13.953647    ( 0.0000,  0.0000,  0.0000)
  28 C     -0.000000   -0.000000   12.724087    ( 0.0000,  0.0000,  0.0000)

Unit cell:
           periodic     x           y           z      points  spacing
  1. axis:    yes    8.421642    0.000000    0.000000    42     0.1737
  2. axis:    yes    4.210821    7.293356    0.000000    42     0.1737
  3. axis:    no     0.000000    0.000000   16.584161    84     0.1974

  Lengths:   8.421642   8.421642  16.584161
  Angles:   90.000000  90.000000  60.000000

Effective grid spacing dv^(1/3) = 0.1901

     iter     time        total  log10-change:
                         energy  eigst   dens
iter:   1 10:27:12  -204.757646  -1.04
iter:   2 10:27:20  -192.558969  -1.15  -1.40
iter:   3 10:27:28  -186.786337  -1.44  -1.58
iter:   4 10:27:36  -178.005563  -2.26  -1.65
iter:   5 10:27:44  -177.509870  -3.14  -2.06
iter:   6 10:27:52  -177.054599  -3.15  -2.19
iter:   7 10:27:59  -176.782353  -3.05  -2.37
iter:   8 10:28:07  -176.745404  -3.67  -2.46
iter:   9 10:28:15  -176.693536c -3.77  -2.53
iter:  10 10:28:23  -176.681087c -4.31  -2.75
iter:  11 10:28:31  -176.674371c -4.51  -2.85
iter:  12 10:28:39  -176.668190c -4.50  -2.97
iter:  13 10:28:47  -176.665701c -4.64  -3.11
iter:  14 10:28:54  -176.665556c -5.49  -3.34
iter:  15 10:29:02  -176.665724c -5.42  -3.41
iter:  16 10:29:10  -176.666108c -5.49  -3.58
iter:  17 10:29:18  -176.666194c -6.31  -3.75
iter:  18 10:29:26  -176.666150c -6.50  -3.76
iter:  19 10:29:34  -176.666149c -6.46  -3.85
iter:  20 10:29:42  -176.666062c -6.13  -3.98
iter:  21 10:29:49  -176.666041c -6.95  -4.35c
iter:  22 10:29:57  -176.666043c -7.17  -4.44c
iter:  23 10:30:05  -176.666010c -7.76c -4.68c

Converged after 23 iterations.

Dipole moment: (0.263193, 0.151955, 0.102291) |e|*Ang

Energy contributions relative to reference atoms: (reference = -13513203.275138)

Kinetic:       -322.930251
Potential:     +244.799095
External:        +0.000000
XC:             -83.055472
Entropy (-ST):   -1.756457
Local:          -14.601154
--------------------------
Free energy:   -177.544239
Extrapolated:  -176.666010

Showing only first 2 kpts
 Kpt  Band  Eigenvalues  Occupancy
  0   219      1.48566    1.42998
  0   220      1.49173    1.40495
  0   221      1.50387    1.35296
  0   222      1.56211    1.07749

  1   219      1.35318    1.80837
  1   220      1.36628    1.78443
  1   221      1.41727    1.66507
  1   222      1.43792    1.60346


Fermi level: 1.57764

No gap

Forces in eV/Ang:
  0 Pt   -0.05371   -0.03101    0.07322
  1 Pt    0.00000    0.01754    0.00617
  2 Pt    0.05371   -0.03101    0.07322
  3 Pt    0.01519   -0.00877    0.00617
  4 Pt   -0.01519   -0.00877    0.00617
  5 Pt   -0.00000   -0.16006    0.20090
  6 Pt    0.00000    0.06202    0.07322
  7 Pt   -0.13862    0.08003    0.20090
  8 Pt    0.13862    0.08003    0.20090
  9 Pt    0.00000    0.26040   -0.32659
 10 Pt    0.02127    0.01228   -0.05252
 11 Pt   -0.02127    0.01228   -0.05252
 12 Pt   -0.04603    0.02658   -0.12364
 13 Pt    0.00000   -0.02456   -0.05252
 14 Pt    0.04603    0.02658   -0.12364
 15 Pt   -0.22552   -0.13020   -0.32659
 16 Pt    0.22552   -0.13020   -0.32659
 17 Pt    0.00000   -0.05315   -0.12364
 18 Pt    0.00000   -0.00000    3.58421
 19 Pt   -0.60013    0.01374    0.01598
 20 Pt    0.60013    0.01374    0.01598
 21 Pt   -0.28816   -0.52660    0.01598
 22 Pt    0.00000   -0.00000   -0.05778
 23 Pt    0.28816   -0.52660    0.01598
 24 Pt    0.31197    0.51286    0.01598
 25 Pt   -0.31197    0.51286    0.01598
 26 Pt   -0.00000    0.00000   -0.13179
 27 O    -0.00000   -0.00000   -6.77119
 28 C     0.00000   -0.00000    3.96170

System changes: positions 

Initializing position-dependent things.

Density initialized from wave functions
                                            
                                            
                                            
                                            
                                            
                                            
                                            
       O                                    
                 Pt     Pt     Pt           
       C                                    
            Pt    PPt    PPt   Pt           
       Pt    PPt    PPt    Pt               
                                            
        Pt     Pt    PPt    Pt    Pt        
                                            
                Pt     Pt     Pt            
           Pt     Pt     Pt                 
                                            
                                            
                                            
                                            

Positions:
   0 Pt     1.401083    0.808916    6.003548    ( 0.0000,  0.0000,  0.0000)
   1 Pt     4.210821    0.811447    5.981724    ( 0.0000,  0.0000,  0.0000)
   2 Pt     7.020559    0.808916    6.003548    ( 0.0000,  0.0000,  0.0000)
   3 Pt     2.808144    3.240955    5.981724    ( 0.0000,  0.0000,  0.0000)
   4 Pt     5.613498    3.240955    5.981724    ( 0.0000,  0.0000,  0.0000)
   5 Pt     8.421642    3.245239    5.976894    ( 0.0000,  0.0000,  0.0000)
   6 Pt     4.210821    5.675524    6.003548    ( 0.0000,  0.0000,  0.0000)
   7 Pt     7.021280    5.670736    5.976894    ( 0.0000,  0.0000,  0.0000)
   8 Pt     9.822003    5.670736    5.976894    ( 0.0000,  0.0000,  0.0000)
   9 Pt    -0.000000    1.604690    8.346493    ( 0.0000,  0.0000,  0.0000)
  10 Pt     2.797724    1.615267    8.278518    ( 0.0000,  0.0000,  0.0000)
  11 Pt     5.623918    1.615267    8.278518    ( 0.0000,  0.0000,  0.0000)
  12 Pt     1.387413    4.061214    8.235173    ( 0.0000,  0.0000,  0.0000)
  13 Pt     4.210821    4.062823    8.278518    ( 0.0000,  0.0000,  0.0000)
  14 Pt     7.034229    4.061214    8.235173    ( 0.0000,  0.0000,  0.0000)
  15 Pt     2.821118    6.491011    8.346493    ( 0.0000,  0.0000,  0.0000)
  16 Pt     5.600524    6.491011    8.346493    ( 0.0000,  0.0000,  0.0000)
  17 Pt     8.421642    6.464284    8.235173    ( 0.0000,  0.0000,  0.0000)
  18 Pt    -0.000000   -0.000000   10.750132    ( 0.0000,  0.0000,  0.0000)
  19 Pt     2.728460   -0.002249   10.588236    ( 0.0000,  0.0000,  0.0000)
  20 Pt     5.693181   -0.002249   10.588236    ( 0.0000,  0.0000,  0.0000)
  21 Pt     1.362283    2.364040   10.588236    ( 0.0000,  0.0000,  0.0000)
  22 Pt     4.210821    2.431119   10.614727    ( 0.0000,  0.0000,  0.0000)
  23 Pt     7.059359    2.364040   10.588236    ( 0.0000,  0.0000,  0.0000)
  24 Pt     2.844643    4.931564   10.588236    ( 0.0000,  0.0000,  0.0000)
  25 Pt     5.576999    4.931564   10.588236    ( 0.0000,  0.0000,  0.0000)
  26 Pt     8.421642    4.862237   10.608053    ( 0.0000,  0.0000,  0.0000)
  27 O     -0.000000    0.000000   13.767681    ( 0.0000,  0.0000,  0.0000)
  28 C     -0.000000   -0.000000   12.480114    ( 0.0000,  0.0000,  0.0000)

Unit cell:
           periodic     x           y           z      points  spacing
  1. axis:    yes    8.421642    0.000000    0.000000    42     0.1737
  2. axis:    yes    4.210821    7.293356    0.000000    42     0.1737
  3. axis:    no     0.000000    0.000000   16.584161    84     0.1974

  Lengths:   8.421642   8.421642  16.584161
  Angles:   90.000000  90.000000  60.000000

Effective grid spacing dv^(1/3) = 0.1901

     iter     time        total  log10-change:
                         energy  eigst   dens
iter:   1 10:30:15  -206.534758  -0.69
iter:   2 10:30:23  -189.423501  -1.15  -1.46
iter:   3 10:30:31  -182.143634  -1.60  -1.57
iter:   4 10:30:39  -177.573533  -2.36  -1.71
iter:   5 10:30:47  -176.973891  -2.65  -2.03
iter:   6 10:30:55  -176.628447  -2.77  -2.17
iter:   7 10:31:03  -176.511933  -2.70  -2.34
iter:   8 10:31:10  -176.471094c -3.80  -2.47
iter:   9 10:31:18  -176.439809c -3.82  -2.54
iter:  10 10:31:26  -176.437707c -3.64  -2.67
iter:  11 10:31:34  -176.432221c -4.03  -2.82
iter:  12 10:31:42  -176.426222c -4.52  -2.98
iter:  13 10:31:50  -176.425246c -4.63  -3.10
iter:  14 10:31:58  -176.422585c -4.79  -3.17
iter:  15 10:32:05  -176.422821c -5.36  -3.47
iter:  16 10:32:13  -176.422517c -5.53  -3.54
iter:  17 10:32:21  -176.422537c -6.00  -3.70
iter:  18 10:32:29  -176.422438c -5.97  -3.76
iter:  19 10:32:37  -176.422502c -6.11  -3.87
iter:  20 10:32:45  -176.422456c -6.25  -3.94
iter:  21 10:32:53  -176.422525c -6.54  -4.02c
iter:  22 10:33:00  -176.422500c -6.97  -4.12c
iter:  23 10:33:08  -176.422525c -6.85  -4.20c
iter:  24 10:33:16  -176.422535c -7.16  -4.30c
iter:  25 10:33:24  -176.422585c -7.42c -4.40c

Converged after 25 iterations.

Dipole moment: (-0.064524, -0.037253, -0.180812) |e|*Ang

Energy contributions relative to reference atoms: (reference = -13513203.275138)

Kinetic:       -302.715990
Potential:     +228.000684
External:        +0.000000
XC:             -86.169845
Entropy (-ST):   -1.705985
Local:          -14.684442
--------------------------
Free energy:   -177.275578
Extrapolated:  -176.422585

Showing only first 2 kpts
 Kpt  Band  Eigenvalues  Occupancy
  0   219      1.38551    1.48546
  0   220      1.39862    1.43376
  0   221      1.44284    1.23875
  0   222      1.47643    1.07534

  1   219      1.25749    1.82432
  1   220      1.26965    1.80385
  1   221      1.29129    1.76209
  1   222      1.33740    1.64731


Fermi level: 1.49153

No gap

Forces in eV/Ang:
  0 Pt   -0.08332   -0.04811    0.12998
  1 Pt    0.00000    0.03411   -0.05881
  2 Pt    0.08332   -0.04811    0.12998
  3 Pt    0.02954   -0.01706   -0.05881
  4 Pt   -0.02954   -0.01706   -0.05881
  5 Pt    0.00000   -0.15567   -0.26331
  6 Pt   -0.00000    0.09621    0.12998
  7 Pt   -0.13481    0.07783   -0.26331
  8 Pt    0.13481    0.07783   -0.26331
  9 Pt    0.00000    0.04882   -0.47344
 10 Pt    0.26610    0.15363    0.16406
 11 Pt   -0.26610    0.15363    0.16406
 12 Pt    0.21373   -0.12340    0.63003
 13 Pt    0.00000   -0.30727    0.16406
 14 Pt   -0.21373   -0.12340    0.63003
 15 Pt   -0.04228   -0.02441   -0.47344
 16 Pt    0.04228   -0.02441   -0.47344
 17 Pt    0.00000    0.24679    0.63003
 18 Pt    0.00000   -0.00000   -2.38974
 19 Pt    1.33846    0.03487   -0.06819
 20 Pt   -1.33846    0.03487   -0.06819
 21 Pt    0.69943    1.14171   -0.06819
 22 Pt    0.00000    0.00000   -0.38281
 23 Pt   -0.69943    1.14171   -0.06819
 24 Pt   -0.63903   -1.17658   -0.06819
 25 Pt    0.63903   -1.17658   -0.06819
 26 Pt   -0.00000    0.00000   -0.42942
 27 O     0.00000   -0.00000   -8.35144
 28 C     0.00000    0.00000   11.73712

System changes: positions 

Initializing position-dependent things.

Density initialized from wave functions
                                            
                                            
                                            
                                            
                                            
                                            
                                            
       O                                    
                 Pt     Pt     Pt           
       C                                    
            Pt    PPt    PPt   Pt           
       Pt    PPt    PPt    Pt               
                                            
        Pt     Pt    PPt    Pt    Pt        
                                            
                Pt     Pt     Pt            
           Pt     Pt     Pt                 
                                            
                                            
                                            
                                            

Positions:
   0 Pt     1.403166    0.810118    6.000300    ( 0.0000,  0.0000,  0.0000)
   1 Pt     4.210821    0.811962    5.985528    ( 0.0000,  0.0000,  0.0000)
   2 Pt     7.018475    0.810118    6.000300    ( 0.0000,  0.0000,  0.0000)
   3 Pt     2.808590    3.240697    5.985528    ( 0.0000,  0.0000,  0.0000)
   4 Pt     5.613052    3.240697    5.985528    ( 0.0000,  0.0000,  0.0000)
   5 Pt     8.421642    3.244650    5.974105    ( 0.0000,  0.0000,  0.0000)
   6 Pt     4.210821    5.673119    6.000300    ( 0.0000,  0.0000,  0.0000)
   7 Pt     7.020770    5.671031    5.974105    ( 0.0000,  0.0000,  0.0000)
   8 Pt     9.822513    5.671031    5.974105    ( 0.0000,  0.0000,  0.0000)
   9 Pt    -0.000000    1.614814    8.313188    ( 0.0000,  0.0000,  0.0000)
  10 Pt     2.807187    1.620730    8.287860    ( 0.0000,  0.0000,  0.0000)
  11 Pt     5.614454    1.620730    8.287860    ( 0.0000,  0.0000,  0.0000)
  12 Pt     1.400686    4.053551    8.272658    ( 0.0000,  0.0000,  0.0000)
  13 Pt     4.210821    4.051895    8.287860    ( 0.0000,  0.0000,  0.0000)
  14 Pt     7.020956    4.053551    8.272658    ( 0.0000,  0.0000,  0.0000)
  15 Pt     2.812351    6.485949    8.313188    ( 0.0000,  0.0000,  0.0000)
  16 Pt     5.609290    6.485949    8.313188    ( 0.0000,  0.0000,  0.0000)
  17 Pt     8.421642    6.479610    8.272658    ( 0.0000,  0.0000,  0.0000)
  18 Pt    -0.000000   -0.000000   10.722335    ( 0.0000,  0.0000,  0.0000)
  19 Pt     2.833869   -0.000762   10.582172    ( 0.0000,  0.0000,  0.0000)
  20 Pt     5.587772   -0.000762   10.582172    ( 0.0000,  0.0000,  0.0000)
  21 Pt     1.416275    2.454584   10.582172    ( 0.0000,  0.0000,  0.0000)
  22 Pt     4.210821    2.431119   10.597835    ( 0.0000,  0.0000,  0.0000)
  23 Pt     7.005367    2.454584   10.582172    ( 0.0000,  0.0000,  0.0000)
  24 Pt     2.793227    4.839534   10.582172    ( 0.0000,  0.0000,  0.0000)
  25 Pt     5.628415    4.839534   10.582172    ( 0.0000,  0.0000,  0.0000)
  26 Pt     8.421642    4.862237   10.595439    ( 0.0000,  0.0000,  0.0000)
  27 O     -0.000000    0.000000   13.733873    ( 0.0000,  0.0000,  0.0000)
  28 C     -0.000000   -0.000000   12.569171    ( 0.0000,  0.0000,  0.0000)

Unit cell:
           periodic     x           y           z      points  spacing
  1. axis:    yes    8.421642    0.000000    0.000000    42     0.1737
  2. axis:    yes    4.210821    7.293356    0.000000    42     0.1737
  3. axis:    no     0.000000    0.000000   16.584161    84     0.1974

  Lengths:   8.421642   8.421642  16.584161
  Angles:   90.000000  90.000000  60.000000

Effective grid spacing dv^(1/3) = 0.1901

     iter     time        total  log10-change:
                         energy  eigst   dens
iter:   1 10:33:34  -187.967391  -1.01
iter:   2 10:33:42  -185.758751  -1.62  -1.64
iter:   3 10:33:50  -180.809765  -1.95  -1.69
iter:   4 10:33:58  -178.534953  -2.68  -1.84
iter:   5 10:34:06  -178.044134  -2.58  -2.22
iter:   6 10:34:14  -177.898412  -3.17  -2.34
iter:   7 10:34:21  -177.844143c -3.50  -2.49
iter:   8 10:34:29  -177.762372c -3.46  -2.54
iter:   9 10:34:37  -177.755692c -3.90  -2.77
iter:  10 10:34:45  -177.753413c -4.27  -2.87
iter:  11 10:34:53  -177.745089c -4.59  -2.86
iter:  12 10:35:01  -177.741729c -4.63  -3.04
iter:  13 10:35:09  -177.741499c -4.82  -3.22
iter:  14 10:35:16  -177.741166c -5.52  -3.39
iter:  15 10:35:24  -177.740954c -5.66  -3.51
iter:  16 10:35:32  -177.741195c -5.67  -3.67
iter:  17 10:35:40  -177.741261c -6.12  -3.75
iter:  18 10:35:48  -177.741209c -6.45  -3.87
iter:  19 10:35:56  -177.741197c -6.03  -3.98
iter:  20 10:36:04  -177.741232c -6.78  -4.24c
[...]
  23 Pt     7.001456    2.461037   10.577155    ( 0.0000,  0.0000,  0.0000)
  24 Pt     2.789593    4.832920   10.577155    ( 0.0000,  0.0000,  0.0000)
  25 Pt     5.632049    4.832920   10.577155    ( 0.0000,  0.0000,  0.0000)
  26 Pt     8.421642    4.862237   10.566606    ( 0.0000,  0.0000,  0.0000)
  27 O      0.000000    0.000000   13.775306    ( 0.0000,  0.0000,  0.0000)
  28 C      0.000000    0.000000   12.620280    ( 0.0000,  0.0000,  0.0000)

Unit cell:
           periodic     x           y           z      points  spacing
  1. axis:    yes    8.421642    0.000000    0.000000    42     0.1737
  2. axis:    yes    4.210821    7.293356    0.000000    42     0.1737
  3. axis:    no     0.000000    0.000000   16.584161    84     0.1974

  Lengths:   8.421642   8.421642  16.584161
  Angles:   90.000000  90.000000  60.000000

Effective grid spacing dv^(1/3) = 0.1901

     iter     time        total  log10-change:
                         energy  eigst   dens
iter:   1 11:56:24  -177.774129  -5.26
iter:   2 11:56:31  -177.774074  -6.46  -4.22c
iter:   3 11:56:39  -177.774021c -7.03  -4.32c
iter:   4 11:56:47  -177.774089c -7.29  -4.28c
iter:   5 11:56:55  -177.774147c -7.40c -4.60c

Converged after 5 iterations.

Dipole moment: (-0.022707, -0.013110, 0.097105) |e|*Ang

Energy contributions relative to reference atoms: (reference = -13513203.275138)

Kinetic:       -307.816119
Potential:     +232.277391
External:        +0.000000
XC:             -86.778345
Entropy (-ST):   -1.715542
Local:          -14.599304
--------------------------
Free energy:   -178.631918
Extrapolated:  -177.774147

Showing only first 2 kpts
 Kpt  Band  Eigenvalues  Occupancy
  0   219      1.46983    1.50949
  0   220      1.49606    1.40607
  0   221      1.52048    1.29934
  0   222      1.57261    1.04809

  1   219      1.34732    1.82573
  1   220      1.37616    1.77406
  1   221      1.38450    1.75681
  1   222      1.41767    1.67660


Fermi level: 1.58224

No gap

Forces in eV/Ang:
  0 Pt    0.00058    0.00033    0.00355
  1 Pt   -0.00000    0.00164    0.00316
  2 Pt   -0.00058    0.00033    0.00355
  3 Pt    0.00142   -0.00082    0.00316
  4 Pt   -0.00142   -0.00082    0.00316
  5 Pt    0.00000    0.00126    0.00035
  6 Pt   -0.00000   -0.00067    0.00355
  7 Pt    0.00109   -0.00063    0.00035
  8 Pt   -0.00109   -0.00063    0.00035
  9 Pt    0.00000   -0.00070   -0.00309
 10 Pt    0.00025    0.00014    0.00265
 11 Pt   -0.00025    0.00014    0.00265
 12 Pt    0.00146   -0.00084    0.00089
 13 Pt    0.00000   -0.00029    0.00265
 14 Pt   -0.00146   -0.00084    0.00089
 15 Pt    0.00060    0.00035   -0.00309
 16 Pt   -0.00060    0.00035   -0.00309
 17 Pt   -0.00000    0.00168    0.00089
 18 Pt   -0.00000   -0.00000   -0.01703
 19 Pt   -0.00304   -0.00120    0.00481
 20 Pt    0.00304   -0.00120    0.00481
 21 Pt   -0.00256   -0.00204    0.00481
 22 Pt    0.00000   -0.00000    0.00074
 23 Pt    0.00256   -0.00204    0.00481
 24 Pt    0.00049    0.00323    0.00481
 25 Pt   -0.00049    0.00323    0.00481
 26 Pt    0.00000   -0.00000    0.00272
 27 O     0.00000   -0.00000   -0.00862
 28 C    -0.00000    0.00000   -0.01765

System changes: positions 

Initializing position-dependent things.

Density initialized from wave functions
                                            
                                            
                                            
                                            
                                            
                                            
                                            
       O                                    
                                            
       C         Pt     Pt     Pt           
            Pt     Pt     Pt                
       Pt     Pt  Pt Pt  Pt    Pt           
             Pt     Pt     Pt               
        Pt     Pt     Pt                    
                     Pt     Pt    Pt        
                Pt     Pt     Pt            
                                            
           Pt     Pt     Pt                 
                                            
                                            
                                            
                                            

Positions:
   0 Pt     1.397622    0.806917    6.023786    ( 0.0000,  0.0000,  0.0000)
   1 Pt     4.210821    0.812095    5.966539    ( 0.0000,  0.0000,  0.0000)
   2 Pt     7.024020    0.806917    6.023786    ( 0.0000,  0.0000,  0.0000)
   3 Pt     2.808706    3.240630    5.966539    ( 0.0000,  0.0000,  0.0000)
   4 Pt     5.612936    3.240630    5.966539    ( 0.0000,  0.0000,  0.0000)
   5 Pt     8.421642    3.239183    5.956165    ( 0.0000,  0.0000,  0.0000)
   6 Pt     4.210821    5.679521    6.023786    ( 0.0000,  0.0000,  0.0000)
   7 Pt     7.016035    5.673764    5.956165    ( 0.0000,  0.0000,  0.0000)
   8 Pt     9.827248    5.673764    5.956165    ( 0.0000,  0.0000,  0.0000)
   9 Pt    -0.000000    1.609697    8.344611    ( 0.0000,  0.0000,  0.0000)
  10 Pt     2.811096    1.622987    8.279432    ( 0.0000,  0.0000,  0.0000)
  11 Pt     5.610546    1.622987    8.279432    ( 0.0000,  0.0000,  0.0000)
  12 Pt     1.401447    4.053111    8.249715    ( 0.0000,  0.0000,  0.0000)
  13 Pt     4.210821    4.047381    8.279432    ( 0.0000,  0.0000,  0.0000)
  14 Pt     7.020195    4.053111    8.249715    ( 0.0000,  0.0000,  0.0000)
  15 Pt     2.816782    6.488507    8.344611    ( 0.0000,  0.0000,  0.0000)
  16 Pt     5.604860    6.488507    8.344611    ( 0.0000,  0.0000,  0.0000)
  17 Pt     8.421642    6.480489    8.249715    ( 0.0000,  0.0000,  0.0000)
  18 Pt    -0.000000   -0.000000   10.779027    ( 0.0000,  0.0000,  0.0000)
  19 Pt     2.841303   -0.000668   10.577351    ( 0.0000,  0.0000,  0.0000)
  20 Pt     5.580339   -0.000668   10.577351    ( 0.0000,  0.0000,  0.0000)
  21 Pt     1.420073    2.460974   10.577351    ( 0.0000,  0.0000,  0.0000)
  22 Pt     4.210821    2.431119   10.588757    ( 0.0000,  0.0000,  0.0000)
  23 Pt     7.001569    2.460974   10.577351    ( 0.0000,  0.0000,  0.0000)
  24 Pt     2.789591    4.833049   10.577351    ( 0.0000,  0.0000,  0.0000)
  25 Pt     5.632051    4.833049   10.577351    ( 0.0000,  0.0000,  0.0000)
  26 Pt     8.421642    4.862237   10.566947    ( 0.0000,  0.0000,  0.0000)
  27 O      0.000000    0.000000   13.774063    ( 0.0000,  0.0000,  0.0000)
  28 C     -0.000000   -0.000000   12.619041    ( 0.0000,  0.0000,  0.0000)

Unit cell:
           periodic     x           y           z      points  spacing
  1. axis:    yes    8.421642    0.000000    0.000000    42     0.1737
  2. axis:    yes    4.210821    7.293356    0.000000    42     0.1737
  3. axis:    no     0.000000    0.000000   16.584161    84     0.1974

  Lengths:   8.421642   8.421642  16.584161
  Angles:   90.000000  90.000000  60.000000

Effective grid spacing dv^(1/3) = 0.1901

     iter     time        total  log10-change:
                         energy  eigst   dens
iter:   1 11:57:07  -177.774585  -5.35
iter:   2 11:57:14  -177.774795  -5.67  -3.78
iter:   3 11:57:22  -177.774152c -6.28  -3.62
iter:   4 11:57:30  -177.774158c -7.36  -4.46c
iter:   5 11:57:38  -177.774150c -7.64c -4.66c

Converged after 5 iterations.

Dipole moment: (-0.014518, -0.008382, 0.096082) |e|*Ang

Energy contributions relative to reference atoms: (reference = -13513203.275138)

Kinetic:       -307.640376
Potential:     +232.116672
External:        +0.000000
XC:             -86.798290
Entropy (-ST):   -1.715508
Local:          -14.594403
--------------------------
Free energy:   -178.631904
Extrapolated:  -177.774150

Showing only first 2 kpts
 Kpt  Band  Eigenvalues  Occupancy
  0   219      1.47010    1.50883
  0   220      1.49612    1.40619
  0   221      1.52056    1.29937
  0   222      1.57270    1.04808

  1   219      1.34741    1.82573
  1   220      1.37631    1.77395
  1   221      1.38470    1.75655
  1   222      1.41775    1.67662


Fermi level: 1.58233

No gap

Forces in eV/Ang:
  0 Pt    0.00085    0.00049    0.00226
  1 Pt    0.00000   -0.00206   -0.00023
  2 Pt   -0.00085    0.00049    0.00226
  3 Pt   -0.00179    0.00103   -0.00023
  4 Pt    0.00179    0.00103   -0.00023
  5 Pt   -0.00000    0.00044    0.00149
  6 Pt   -0.00000   -0.00099    0.00226
  7 Pt    0.00038   -0.00022    0.00149
  8 Pt   -0.00038   -0.00022    0.00149
  9 Pt    0.00000   -0.00212    0.00168
 10 Pt   -0.00013   -0.00007   -0.00325
 11 Pt    0.00013   -0.00007   -0.00325
 12 Pt    0.00023   -0.00014   -0.00204
 13 Pt    0.00000    0.00015   -0.00325
 14 Pt   -0.00023   -0.00014   -0.00204
 15 Pt    0.00183    0.00106    0.00168
 16 Pt   -0.00183    0.00106    0.00168
 17 Pt    0.00000    0.00027   -0.00204
 18 Pt   -0.00000   -0.00000    0.02396
 19 Pt    0.00050   -0.00054   -0.00262
 20 Pt   -0.00050   -0.00054   -0.00262
 21 Pt   -0.00022    0.00070   -0.00262
 22 Pt   -0.00000    0.00000   -0.00193
 23 Pt    0.00022    0.00070   -0.00262
 24 Pt   -0.00071   -0.00016   -0.00262
 25 Pt    0.00071   -0.00016   -0.00262
 26 Pt   -0.00000   -0.00000   -0.00077
 27 O     0.00000   -0.00000    0.01367
 28 C    -0.00000    0.00000    0.02280

System changes: positions 

Initializing position-dependent things.

Density initialized from wave functions
                                            
                                            
                                            
                                            
                                            
                                            
                                            
       O                                    
                                            
       C         Pt     Pt     Pt           
            Pt     Pt     Pt                
       Pt     Pt  Pt Pt  Pt    Pt           
             Pt     Pt     Pt               
        Pt     Pt     Pt                    
                     Pt     Pt    Pt        
                Pt     Pt     Pt            
                                            
           Pt     Pt     Pt                 
                                            
                                            
                                            
                                            

Positions:
   0 Pt     1.397569    0.806887    6.023893    ( 0.0000,  0.0000,  0.0000)
   1 Pt     4.210821    0.812085    5.966344    ( 0.0000,  0.0000,  0.0000)
   2 Pt     7.024073    0.806887    6.023893    ( 0.0000,  0.0000,  0.0000)
   3 Pt     2.808697    3.240635    5.966344    ( 0.0000,  0.0000,  0.0000)
   4 Pt     5.612945    3.240635    5.966344    ( 0.0000,  0.0000,  0.0000)
   5 Pt     8.421642    3.239195    5.956156    ( 0.0000,  0.0000,  0.0000)
   6 Pt     4.210821    5.679582    6.023893    ( 0.0000,  0.0000,  0.0000)
   7 Pt     7.016046    5.673758    5.956156    ( 0.0000,  0.0000,  0.0000)
   8 Pt     9.827238    5.673758    5.956156    ( 0.0000,  0.0000,  0.0000)
   9 Pt    -0.000000    1.609590    8.344711    ( 0.0000,  0.0000,  0.0000)
  10 Pt     2.811123    1.623003    8.279240    ( 0.0000,  0.0000,  0.0000)
  11 Pt     5.610518    1.623003    8.279240    ( 0.0000,  0.0000,  0.0000)
  12 Pt     1.401473    4.053097    8.249581    ( 0.0000,  0.0000,  0.0000)
  13 Pt     4.210821    4.047350    8.279240    ( 0.0000,  0.0000,  0.0000)
  14 Pt     7.020169    4.053097    8.249581    ( 0.0000,  0.0000,  0.0000)
  15 Pt     2.816875    6.488561    8.344711    ( 0.0000,  0.0000,  0.0000)
  16 Pt     5.604766    6.488561    8.344711    ( 0.0000,  0.0000,  0.0000)
  17 Pt     8.421642    6.480518    8.249581    ( 0.0000,  0.0000,  0.0000)
  18 Pt    -0.000000   -0.000000   10.779866    ( 0.0000,  0.0000,  0.0000)
  19 Pt     2.841341   -0.000658   10.577211    ( 0.0000,  0.0000,  0.0000)
  20 Pt     5.580301   -0.000658   10.577211    ( 0.0000,  0.0000,  0.0000)
  21 Pt     1.420100    2.461003   10.577211    ( 0.0000,  0.0000,  0.0000)
  22 Pt     4.210821    2.431119   10.588453    ( 0.0000,  0.0000,  0.0000)
  23 Pt     7.001541    2.461003   10.577211    ( 0.0000,  0.0000,  0.0000)
  24 Pt     2.789580    4.833011   10.577211    ( 0.0000,  0.0000,  0.0000)
  25 Pt     5.632062    4.833011   10.577211    ( 0.0000,  0.0000,  0.0000)
  26 Pt     8.421642    4.862237   10.566793    ( 0.0000,  0.0000,  0.0000)
  27 O      0.000000    0.000000   13.775043    ( 0.0000,  0.0000,  0.0000)
  28 C     -0.000000    0.000000   12.619964    ( 0.0000,  0.0000,  0.0000)

Unit cell:
           periodic     x           y           z      points  spacing
  1. axis:    yes    8.421642    0.000000    0.000000    42     0.1737
  2. axis:    yes    4.210821    7.293356    0.000000    42     0.1737
  3. axis:    no     0.000000    0.000000   16.584161    84     0.1974

  Lengths:   8.421642   8.421642  16.584161
  Angles:   90.000000  90.000000  60.000000

Effective grid spacing dv^(1/3) = 0.1901

     iter     time        total  log10-change:
                         energy  eigst   dens
iter:   1 11:57:50  -177.774179  -5.56
iter:   2 11:57:57  -177.774006  -6.63  -4.20c
iter:   3 11:58:05  -177.774082c -7.11  -4.25c
iter:   4 11:58:13  -177.774075c -7.26  -4.41c
iter:   5 11:58:21  -177.774124c -7.56c -4.74c

Converged after 5 iterations.

Dipole moment: (-0.014029, -0.008099, 0.097180) |e|*Ang

Energy contributions relative to reference atoms: (reference = -13513203.275138)

Kinetic:       -307.866641
Potential:     +232.325800
External:        +0.000000
XC:             -86.775913
Entropy (-ST):   -1.715586
Local:          -14.599577
--------------------------
Free energy:   -178.631917
Extrapolated:  -177.774124

Showing only first 2 kpts
 Kpt  Band  Eigenvalues  Occupancy
  0   219      1.46994    1.50931
  0   220      1.49612    1.40605
  0   221      1.52056    1.29923
  0   222      1.57266    1.04814

  1   219      1.34741    1.82569
  1   220      1.37621    1.77409
  1   221      1.38456    1.75680
  1   222      1.41772    1.67662


Fermi level: 1.58230

No gap

Forces in eV/Ang:
  0 Pt    0.00103    0.00059    0.00162
  1 Pt   -0.00000    0.00052    0.00167
  2 Pt   -0.00103    0.00059    0.00162
  3 Pt    0.00045   -0.00026    0.00167
  4 Pt   -0.00045   -0.00026    0.00167
  5 Pt    0.00000    0.00200   -0.00009
  6 Pt   -0.00000   -0.00118    0.00162
  7 Pt    0.00173   -0.00100   -0.00009
  8 Pt   -0.00173   -0.00100   -0.00009
  9 Pt    0.00000   -0.00095   -0.00266
 10 Pt    0.00022    0.00012    0.00243
 11 Pt   -0.00022    0.00012    0.00243
 12 Pt    0.00052   -0.00030    0.00192
 13 Pt    0.00000   -0.00025    0.00243
 14 Pt   -0.00052   -0.00030    0.00192
 15 Pt    0.00082    0.00048   -0.00266
 16 Pt   -0.00082    0.00048   -0.00266
 17 Pt    0.00000    0.00060    0.00192
 18 Pt    0.00000   -0.00000   -0.00862
 19 Pt   -0.00126   -0.00024    0.00397
 20 Pt    0.00126   -0.00024    0.00397
 21 Pt   -0.00084   -0.00097    0.00397
 22 Pt    0.00000    0.00000    0.00063
 23 Pt    0.00084   -0.00097    0.00397
 24 Pt    0.00042    0.00121    0.00397
 25 Pt   -0.00042    0.00121    0.00397
 26 Pt    0.00000    0.00000    0.00145
 27 O    -0.00000   -0.00000   -0.00717
 28 C    -0.00000   -0.00000   -0.00721

Timing:                                      incl.     excl.
-------------------------------------------------------------------
Density initialized from wave functions:    23.467    20.797   0.3% |
 Symmetrize density:                         2.670     2.670   0.0% |
Forces:                                     68.482    68.482   1.0% |
Hamiltonian:                                14.608     0.157   0.0% |
 Atomic:                                     7.096     3.596   0.1% |
  XC Correction:                             3.500     3.500   0.0% |
 Calculate atomic Hamiltonians:              3.850     3.850   0.1% |
 Communicate:                                0.053     0.053   0.0% |
 Initialize Hamiltonian:                     0.000     0.000   0.0% |
 Poisson:                                    0.040     0.040   0.0% |
 XC 3D grid:                                 3.412     3.412   0.0% |
LCAO initialization:                        12.853     0.320   0.0% |
 LCAO eigensolver:                           0.870     0.001   0.0% |
  Calculate projections:                     0.006     0.006   0.0% |
  DenseAtomicCorrection:                     0.007     0.007   0.0% |
  Distribute overlap matrix:                 0.109     0.109   0.0% |
  Orbital Layouts:                           0.234     0.234   0.0% |
  Potential matrix:                          0.480     0.480   0.0% |
  Sum over cells:                            0.033     0.033   0.0% |
 LCAO to grid:                              11.326    11.326   0.2% |
 Set positions (LCAO WFS):                   0.336     0.120   0.0% |
  Basic WFS set positions:                   0.005     0.005   0.0% |
  Basis functions set positions:             0.000     0.000   0.0% |
  P tci:                                     0.130     0.130   0.0% |
  ST tci:                                    0.046     0.046   0.0% |
  mktci:                                     0.035     0.035   0.0% |
PWDescriptor:                                0.266     0.266   0.0% |
Redistribute:                                0.096     0.096   0.0% |
SCF-cycle:                                6938.157    11.597   0.2% |
 Davidson:                                6249.402   946.231  13.3% |----|
  Apply H:                                 537.825   521.562   7.3% |--|
   HMM T:                                   16.263    16.263   0.2% |
  Subspace diag:                           947.898     0.386   0.0% |
   calc_h_matrix:                          657.828   123.829   1.7% ||
    Apply H:                               533.999   517.867   7.3% |--|
     HMM T:                                 16.131    16.131   0.2% |
   diagonalize:                             80.850    80.850   1.1% |
   rotate_psi:                             208.834   208.834   2.9% ||
  calc. matrices:                         1874.044   807.414  11.4% |----|
   Apply H:                               1066.630  1034.681  14.6% |-----|
    HMM T:                                  31.949    31.949   0.4% |
  diagonalize:                            1522.760  1522.760  21.4% |--------|
  rotate_psi:                              420.645   420.645   5.9% |-|
 Density:                                  405.883     0.025   0.0% |
  Atomic density matrices:                   4.126     4.126   0.1% |
  Mix:                                      86.821    86.821   1.2% |
  Multipole moments:                         0.185     0.185   0.0% |
  Pseudo density:                          314.726   268.336   3.8% |-|
   Symmetrize density:                      46.390    46.390   0.7% |
 Hamiltonian:                              248.401     2.658   0.0% |
  Atomic:                                  120.465    60.817   0.9% |
   XC Correction:                           59.647    59.647   0.8% |
  Calculate atomic Hamiltonians:            65.426    65.426   0.9% |
  Communicate:                               1.314     1.314   0.0% |
  Poisson:                                   0.753     0.753   0.0% |
  XC 3D grid:                               57.786    57.786   0.8% |
 Orthonormalize:                            22.873     0.027   0.0% |
  calc_s_matrix:                             3.457     3.457   0.0% |
  inverse-cholesky:                          1.781     1.781   0.0% |
  projections:                              11.593    11.593   0.2% |
  rotate_psi_s:                              6.014     6.014   0.1% |
Set symmetry:                                0.004     0.004   0.0% |
Other:                                      46.797    46.797   0.7% |
-------------------------------------------------------------------
Total:                                              7104.731 100.0%

Memory usage: 1004.14 MiB
Date: Fri Mar 10 11:58:23 2023
