
  ___ ___ ___ _ _ _  
 |   |   |_  | | | | 
 | | | | | . | | | | 
 |__ |  _|___|_____|  22.8.0
 |___|_|             

User:   gotols@vera07-3
Date:   Thu Mar  2 15:23:28 2023
Arch:   x86_64
Pid:    1667366
CWD:    /cephyr/users/gotols/Vera/TIF320-Computational-materials-and-molecular-physics-Assignments
Python: 3.10.4
gpaw:   /apps/Arch/software/GPAW/22.8.0-foss-2022a/lib/python3.10/site-packages/gpaw
_gpaw:  /apps/Arch/software/GPAW/22.8.0-foss-2022a/lib/python3.10/site-packages/
        _gpaw.cpython-310-x86_64-linux-gnu.so
ase:    /apps/Arch/software/ASE/3.22.1-foss-2022a/lib/python3.10/site-packages/ase (version 3.22.1)
numpy:  /apps/Arch/software/SciPy-bundle/2022.05-foss-2022a/lib/python3.10/site-packages/numpy (version 1.22.3)
scipy:  /apps/Arch/software/SciPy-bundle/2022.05-foss-2022a/lib/python3.10/site-packages/scipy (version 1.8.1)
libxc:  5.2.3
units:  Angstrom and eV
cores: 16
OpenMP: False
OMP_NUM_THREADS: 1

Input parameters:
  kpts: [4 4 1]
  mode: {ecut: 450.00000000000006,
         name: pw}
  xc: PBE

System changes: positions, numbers, cell, pbc, initial_charges, initial_magmoms 

Initialize ...

species:
  Rh:
    name: Rhodium
    id: 4e1d209aee696a641de1ffa1459b299f
    Z: 45.0
    valence: 15
    core: 30
    charge: 0.0
    file: /apps/Common/software/GPAW-setups/0.9.20000/Rh.PBE.gz
    compensation charges: {type: gauss,
                           rc: 0.38,
                           lmax: 2}
    cutoffs: {filter: 2.48,
              core: 2.35}
    valence states:
      #              energy  rcut
      - 5s(1.00)    -4.297   1.270
      - 4p(6.00)   -50.429   1.381
      - 5p(0.00)    -0.852   1.381
      - 4d(8.00)    -5.942   1.244
      -  s          22.915   1.270
      -  d          21.270   1.244
  
    # Using partial waves for Rh as LCAO basis

  O:
    name: Oxygen
    id: 32ecd46bf208036f09c70b0ec9a88b78
    Z: 8.0
    valence: 6
    core: 2
    charge: 0.0
    file: /apps/Common/software/GPAW-setups/0.9.20000/O.PBE.gz
    compensation charges: {type: gauss,
                           rc: 0.21,
                           lmax: 2}
    cutoffs: {filter: 1.17,
              core: 0.83}
    valence states:
      #              energy  rcut
      - 2s(2.00)   -23.961   0.688
      - 2p(4.00)    -9.029   0.598
      -  s           3.251   0.688
      -  p          18.182   0.598
      -  d           0.000   0.619
  
    # Using partial waves for O as LCAO basis

  C:
    name: Carbon
    id: 4aa54d4b901d75f77cc0ea3eec22967b
    Z: 6.0
    valence: 4
    core: 2
    charge: 0.0
    file: /apps/Common/software/GPAW-setups/0.9.20000/C.PBE.gz
    compensation charges: {type: gauss,
                           rc: 0.20,
                           lmax: 2}
    cutoffs: {filter: 1.14,
              core: 1.14}
    valence states:
      #              energy  rcut
      - 2s(2.00)   -13.751   0.635
      - 2p(2.00)    -5.284   0.635
      -  s          13.461   0.635
      -  p          21.927   0.635
      -  d           0.000   0.635
  
    # Using partial waves for C as LCAO basis

Reference energy: -3516703.949422  # eV

Spin-paired calculation

Convergence criteria:
 Maximum [total energy] change in last 3 cyles: 0.0005 eV / electron
 Maximum integral of absolute [dens]ity change: 0.0001 electrons / valence electron
 Maximum integral of absolute [eigenst]ate change: 4e-08 eV^2 / valence electron
 Maximum number of scf [iter]ations: 333
 (Square brackets indicate name in SCF output, whereas a 'c' in
 the SCF output indicates the quantity has converged.)

Symmetries present (total): 2

  ( 1  0  0)  ( 0  1  0)
  ( 0  1  0)  ( 1  0  0)
  ( 0  0  1)  ( 0  0  1)

16 k-points: 4 x 4 x 1 Monkhorst-Pack grid
6 k-points in the irreducible part of the Brillouin zone
       k-points in crystal coordinates                weights
   0:     0.12500000   -0.12500000    0.00000000          2/16
   1:     0.12500000    0.12500000    0.00000000          2/16
   2:     0.37500000   -0.37500000    0.00000000          2/16
   3:     0.37500000   -0.12500000    0.00000000          4/16
   4:     0.37500000    0.12500000    0.00000000          4/16
   5:     0.37500000    0.37500000    0.00000000          2/16

Wave functions: Plane wave expansion
  Cutoff energy: 450.000 eV
  Number of coefficients (min, max): 20454, 20528
  Pulay-stress correction: 0.000000 eV/Ang^3 (de/decut=0.000000)
  Using FFTW library
  ScaLapack parameters: grid=1x1, blocksize=None
  Wavefunction extrapolation:
    Improved wavefunction reuse through dual PAW basis 

Occupation numbers: Fermi-Dirac:
  width: 0.1000  # eV
 

Eigensolver
   Davidson(niter=2) 

Densities:
  Coarse grid: 40*40*81 grid
  Fine grid: 80*80*162 grid
  Total Charge: 0.000000 

Density mixing:
  Method: separate
  Backend: pulay
  Linear mixing parameter: 0.05
  old densities: 5
  Damping of long wavelength oscillations: 50 

Hamiltonian:
  XC and Coulomb potentials evaluated on a 80*80*162 grid
  Using the PBE Exchange-Correlation functional
  External potential:
    NoExternalPotential
 

XC parameters: PBE with 2 nearest neighbor stencil

Memory estimate:
  Process memory now: 926.60 MiB
  Calculator: 346.68 MiB
    Density: 8.63 MiB
      Arrays: 3.26 MiB
      Localized functions: 4.09 MiB
      Mixer: 1.28 MiB
    Hamiltonian: 2.24 MiB
      Arrays: 2.13 MiB
      XC: 0.00 MiB
      Poisson: 0.00 MiB
      vbar: 0.11 MiB
    Wavefunctions: 335.81 MiB
      Arrays psit_nG: 237.74 MiB
      Eigensolver: 90.59 MiB
      Projections: 0.74 MiB
      Projectors: 1.47 MiB
      PW-descriptor: 5.27 MiB

Total number of cores used: 16
Parallelization over k-points: 2
Domain decomposition: 1 x 2 x 4

Number of atoms: 29
Number of atomic orbitals: 332
Number of bands in calculation: 253
Number of valence electrons: 415
Bands to converge: occupied

... initialized

Initializing position-dependent things.

Density initialized from atomic densities
Creating initial wave functions:
  253 bands from LCAO basis set

                                           
                                           
                                           
                                           
                                           
                                           
                                           
           O                               
           C    Rh     Rh     Rh           
                                           
            Rh   RRh    RRh    Rh          
       Rh    RRh   RRh    Rh               
                                           
        Rh     Rh   RRh    Rh    Rh        
                                           
                Rh    Rh     Rh            
           Rh    Rh     Rh                 
                                           
                                           
                                           
                                           

Positions:
   0 Rh     1.357645    0.783837    6.000000    ( 0.0000,  0.0000,  0.0000)
   1 Rh     4.072935    0.783837    6.000000    ( 0.0000,  0.0000,  0.0000)
   2 Rh     6.788225    0.783837    6.000000    ( 0.0000,  0.0000,  0.0000)
   3 Rh     2.715290    3.135347    6.000000    ( 0.0000,  0.0000,  0.0000)
   4 Rh     5.430580    3.135347    6.000000    ( 0.0000,  0.0000,  0.0000)
   5 Rh     8.145870    3.135347    6.000000    ( 0.0000,  0.0000,  0.0000)
   6 Rh     4.072935    5.486857    6.000000    ( 0.0000,  0.0000,  0.0000)
   7 Rh     6.788225    5.486857    6.000000    ( 0.0000,  0.0000,  0.0000)
   8 Rh     9.503515    5.486857    6.000000    ( 0.0000,  0.0000,  0.0000)
   9 Rh    -0.000000    1.567673    8.217025    ( 0.0000,  0.0000,  0.0000)
  10 Rh     2.715290    1.567673    8.217025    ( 0.0000,  0.0000,  0.0000)
  11 Rh     5.430580    1.567673    8.217025    ( 0.0000,  0.0000,  0.0000)
  12 Rh     1.357645    3.919184    8.217025    ( 0.0000,  0.0000,  0.0000)
  13 Rh     4.072935    3.919184    8.217025    ( 0.0000,  0.0000,  0.0000)
  14 Rh     6.788225    3.919184    8.217025    ( 0.0000,  0.0000,  0.0000)
  15 Rh     2.715290    6.270694    8.217025    ( 0.0000,  0.0000,  0.0000)
  16 Rh     5.430580    6.270694    8.217025    ( 0.0000,  0.0000,  0.0000)
  17 Rh     8.145870    6.270694    8.217025    ( 0.0000,  0.0000,  0.0000)
  18 Rh     0.000000    0.000000   10.434050    ( 0.0000,  0.0000,  0.0000)
  19 Rh     2.715290    0.000000   10.434050    ( 0.0000,  0.0000,  0.0000)
  20 Rh     5.430580    0.000000   10.434050    ( 0.0000,  0.0000,  0.0000)
  21 Rh     1.357645    2.351510   10.434050    ( 0.0000,  0.0000,  0.0000)
  22 Rh     4.072935    2.351510   10.434050    ( 0.0000,  0.0000,  0.0000)
  23 Rh     6.788225    2.351510   10.434050    ( 0.0000,  0.0000,  0.0000)
  24 Rh     2.715290    4.703020   10.434050    ( 0.0000,  0.0000,  0.0000)
  25 Rh     5.430580    4.703020   10.434050    ( 0.0000,  0.0000,  0.0000)
  26 Rh     8.145870    4.703020   10.434050    ( 0.0000,  0.0000,  0.0000)
  27 O      1.357645    0.783837   13.584390    ( 0.0000,  0.0000,  0.0000)
  28 C      1.357645    0.783837   12.434050    ( 0.0000,  0.0000,  0.0000)

Unit cell:
           periodic     x           y           z      points  spacing
  1. axis:    yes    8.145870    0.000000    0.000000    40     0.1764
  2. axis:    yes    4.072935    7.054530    0.000000    40     0.1764
  3. axis:    no     0.000000    0.000000   16.434050    81     0.2029

  Lengths:   8.145870   8.145870  16.434050
  Angles:   90.000000  90.000000  60.000000

Effective grid spacing dv^(1/3) = 0.1939

     iter     time        total  log10-change:
                         energy  eigst   dens
iter:   1 15:23:54  -211.395121
iter:   2 15:24:01  -208.887420  -1.32  -1.36
iter:   3 15:24:07  -208.952272  -1.50  -1.38
iter:   4 15:24:14  -201.081313  -1.25  -1.38
iter:   5 15:24:21  -198.185905  -2.16  -1.64
iter:   6 15:24:27  -198.143688  -2.28  -1.92
iter:   7 15:24:34  -197.948415  -2.73  -2.08
iter:   8 15:24:41  -197.880401  -3.13  -2.19
iter:   9 15:24:48  -197.782581c -3.00  -2.24
iter:  10 15:24:54  -197.775301c -3.45  -2.40
iter:  11 15:25:01  -197.738021c -3.36  -2.46
iter:  12 15:25:08  -197.733902c -4.06  -2.88
iter:  13 15:25:15  -197.732524c -4.54  -3.01
iter:  14 15:25:21  -197.731951c -4.75  -3.09
iter:  15 15:25:28  -197.733135c -4.88  -3.17
iter:  16 15:25:35  -197.733335c -5.07  -3.21
iter:  17 15:25:41  -197.732648c -5.45  -3.30
iter:  18 15:25:48  -197.731694c -5.23  -3.37
iter:  19 15:25:55  -197.731321c -5.49  -3.61
iter:  20 15:26:01  -197.731275c -6.34  -3.65
iter:  21 15:26:08  -197.731237c -6.19  -3.76
iter:  22 15:26:15  -197.731234c -7.03  -3.97
iter:  23 15:26:22  -197.731382c -6.73  -4.02c
iter:  24 15:26:28  -197.731347c -6.67  -3.99
iter:  25 15:26:35  -197.731377c -7.09  -4.21c
iter:  26 15:26:42  -197.731352c -6.76  -4.26c
iter:  27 15:26:48  -197.731340c -7.55c -4.74c

Converged after 27 iterations.

Dipole moment: (-5.770260, -3.331461, -0.080023) |e|*Ang

Energy contributions relative to reference atoms: (reference = -3516703.949422)

Kinetic:       -176.981717
Potential:      +93.478182
External:        +0.000000
XC:            -111.199609
Entropy (-ST):   -1.730185
Local:           -2.163103
--------------------------
Free energy:   -198.596432
Extrapolated:  -197.731340

Showing only first 2 kpts
 Kpt  Band  Eigenvalues  Occupancy
  0   205      1.68390    1.37662
  0   206      1.76168    1.00721
  0   207      1.76434    0.99389
  0   208      1.79055    0.86371

  1   205      1.66641    1.44909
  1   206      1.66875    1.43968
  1   207      1.74285    1.10100
  1   208      1.77055    0.96288


Fermi level: 1.76312

No gap

Forces in eV/Ang:
  0 Rh    0.00404    0.00233    0.44695
  1 Rh    0.01288   -0.03965    0.41742
  2 Rh   -0.00704   -0.03502    0.41715
  3 Rh   -0.02790    0.03098    0.41742
  4 Rh   -0.00049   -0.00028    0.45958
  5 Rh    0.02675    0.02779    0.41741
  6 Rh   -0.03385    0.01141    0.41715
  7 Rh    0.03744    0.00927    0.41741
  8 Rh    0.00985    0.00569    0.30976
  9 Rh   -0.01213    0.00499   -0.16009
 10 Rh    0.01339    0.00773   -0.16515
 11 Rh    0.00164    0.01066    0.04170
 12 Rh   -0.00743   -0.07766    0.13850
 13 Rh    0.01005   -0.00391    0.04170
 14 Rh   -0.00831   -0.00480    0.03896
 15 Rh    0.07281    0.04204    0.13908
 16 Rh   -0.00175   -0.01300   -0.16009
 17 Rh   -0.07097    0.03239    0.13850
 18 Rh    0.09359    0.05403    0.39031
 19 Rh   -0.09499    0.05814    0.40199
 20 Rh   -0.00453    0.00466   -0.49434
 21 Rh    0.00286   -0.11134    0.40199
 22 Rh    0.15562    0.08985   -0.50343
 23 Rh   -0.16178    0.08457   -0.50999
 24 Rh    0.00177   -0.00626   -0.49434
 25 Rh   -0.00765   -0.18239   -0.50999
 26 Rh   -0.00194   -0.00112   -0.49862
 27 O    -0.00140   -0.00081    0.87452
 28 C    -0.00224   -0.00129   -2.84802

System changes: positions 

Initializing position-dependent things.

Density initialized from wave functions
                                           
                                           
                                           
                                           
                                           
                                           
                                           
           O                               
                Rh     Rh     Rh           
           C                               
            Rh   RRh    RRh    Rh          
       Rh    RRh   RRh    Rh               
                                           
        Rh     Rh   RRh    Rh    Rh        
                                           
                Rh    Rh     Rh            
           Rh    Rh     Rh                 
                                           
                                           
                                           
                                           

Positions:
   0 Rh     1.357645    0.783837    6.000000    ( 0.0000,  0.0000,  0.0000)
   1 Rh     4.072935    0.783837    6.000000    ( 0.0000,  0.0000,  0.0000)
   2 Rh     6.788225    0.783837    6.000000    ( 0.0000,  0.0000,  0.0000)
   3 Rh     2.715290    3.135347    6.000000    ( 0.0000,  0.0000,  0.0000)
   4 Rh     5.430580    3.135347    6.000000    ( 0.0000,  0.0000,  0.0000)
   5 Rh     8.145870    3.135347    6.000000    ( 0.0000,  0.0000,  0.0000)
   6 Rh     4.072935    5.486857    6.000000    ( 0.0000,  0.0000,  0.0000)
   7 Rh     6.788225    5.486857    6.000000    ( 0.0000,  0.0000,  0.0000)
   8 Rh     9.503515    5.486857    6.000000    ( 0.0000,  0.0000,  0.0000)
   9 Rh    -0.000000    1.567673    8.217025    ( 0.0000,  0.0000,  0.0000)
  10 Rh     2.715290    1.567673    8.217025    ( 0.0000,  0.0000,  0.0000)
  11 Rh     5.430580    1.567673    8.217025    ( 0.0000,  0.0000,  0.0000)
  12 Rh     1.357645    3.919184    8.217025    ( 0.0000,  0.0000,  0.0000)
  13 Rh     4.072935    3.919184    8.217025    ( 0.0000,  0.0000,  0.0000)
  14 Rh     6.788225    3.919184    8.217025    ( 0.0000,  0.0000,  0.0000)
  15 Rh     2.715290    6.270694    8.217025    ( 0.0000,  0.0000,  0.0000)
  16 Rh     5.430580    6.270694    8.217025    ( 0.0000,  0.0000,  0.0000)
  17 Rh     8.145870    6.270694    8.217025    ( 0.0000,  0.0000,  0.0000)
  18 Rh     0.000000    0.000000   10.434050    ( 0.0000,  0.0000,  0.0000)
  19 Rh     2.715290    0.000000   10.434050    ( 0.0000,  0.0000,  0.0000)
  20 Rh     5.430580    0.000000   10.434050    ( 0.0000,  0.0000,  0.0000)
  21 Rh     1.357645    2.351510   10.434050    ( 0.0000,  0.0000,  0.0000)
  22 Rh     4.072935    2.351510   10.434050    ( 0.0000,  0.0000,  0.0000)
  23 Rh     6.788225    2.351510   10.434050    ( 0.0000,  0.0000,  0.0000)
  24 Rh     2.715290    4.703020   10.434050    ( 0.0000,  0.0000,  0.0000)
  25 Rh     5.430580    4.703020   10.434050    ( 0.0000,  0.0000,  0.0000)
  26 Rh     8.145870    4.703020   10.434050    ( 0.0000,  0.0000,  0.0000)
  27 O      1.357645    0.783837   13.584390    ( 0.0000,  0.0000,  0.0000)
  28 C      1.357331    0.783655   12.034050    ( 0.0000,  0.0000,  0.0000)

Unit cell:
           periodic     x           y           z      points  spacing
  1. axis:    yes    8.145870    0.000000    0.000000    40     0.1764
  2. axis:    yes    4.072935    7.054530    0.000000    40     0.1764
  3. axis:    no     0.000000    0.000000   16.434050    81     0.2029

  Lengths:   8.145870   8.145870  16.434050
  Angles:   90.000000  90.000000  60.000000

Effective grid spacing dv^(1/3) = 0.1939

     iter     time        total  log10-change:
                         energy  eigst   dens
iter:   1 15:26:57  -218.814190  -0.40
iter:   2 15:27:04  -231.651111  -1.24  -1.52
iter:   3 15:27:11  -209.252432  -1.45  -1.27
iter:   4 15:27:17  -200.139598  -1.67  -1.56
iter:   5 15:27:24  -196.858621  -2.31  -1.72
iter:   6 15:27:31  -196.755282  -2.59  -2.13
iter:   7 15:27:38  -196.435998  -2.21  -2.17
iter:   8 15:27:44  -196.207441  -2.83  -2.27
iter:   9 15:27:51  -196.121675  -3.45  -2.34
iter:  10 15:27:58  -195.945722  -3.30  -2.25
iter:  11 15:28:04  -195.800241  -3.15  -2.45
iter:  12 15:28:11  -195.784928c -3.63  -2.80
iter:  13 15:28:18  -195.777326c -4.84  -2.99
iter:  14 15:28:25  -195.776608c -4.59  -3.07
iter:  15 15:28:31  -195.776846c -5.18  -3.15
iter:  16 15:28:38  -195.787014c -4.91  -3.22
iter:  17 15:28:45  -195.779266c -4.95  -2.92
iter:  18 15:28:51  -195.777539c -5.56  -3.17
iter:  19 15:28:58  -195.777965c -4.92  -3.42
iter:  20 15:29:05  -195.777867c -6.01  -3.69
iter:  21 15:29:12  -195.777712c -6.02  -3.75
iter:  22 15:29:18  -195.777806c -6.07  -3.93
iter:  23 15:29:25  -195.777700c -6.80  -3.96
iter:  24 15:29:32  -195.777699c -6.57  -3.92
iter:  25 15:29:39  -195.777657c -6.38  -4.16c
iter:  26 15:29:45  -195.777633c -7.44c -4.42c

Converged after 26 iterations.

Dipole moment: (-5.332711, -3.078842, -0.910733) |e|*Ang

Energy contributions relative to reference atoms: (reference = -3516703.949422)

Kinetic:       -197.421353
Potential:     +111.411077
External:        +0.000000
XC:            -106.769892
Entropy (-ST):   -1.733250
Local:           -2.130840
--------------------------
Free energy:   -196.644258
Extrapolated:  -195.777633

Showing only first 2 kpts
 Kpt  Band  Eigenvalues  Occupancy
  0   205      1.37191    1.28425
  0   206      1.42071    1.04826
  0   207      1.44352    0.93436
  0   208      1.46104    0.84786

  1   205      1.33738    1.43413
  1   206      1.33782    1.43231
  1   207      1.39931    1.15404
  1   208      1.43870    0.95837


Fermi level: 1.43037

No gap

Forces in eV/Ang:
  0 Rh    0.00250    0.00144    0.43330
  1 Rh    0.00750   -0.05091    0.43809
  2 Rh   -0.00282   -0.04788    0.43754
  3 Rh   -0.04034    0.03195    0.43809
  4 Rh   -0.00082   -0.00047    0.47198
  5 Rh    0.03800    0.02827    0.43543
  6 Rh   -0.04288    0.02150    0.43754
  7 Rh    0.04349    0.01878    0.43543
  8 Rh    0.01116    0.00644    0.17489
  9 Rh   -0.04150    0.02186   -0.19647
 10 Rh    0.04345    0.02508   -0.20427
 11 Rh    0.00306   -0.01380    0.04900
 12 Rh   -0.00809    0.07662   -0.06615
 13 Rh   -0.01042    0.00955    0.04900
 14 Rh    0.01385    0.00800    0.04651
 15 Rh   -0.06069   -0.03504   -0.06563
 16 Rh   -0.00182   -0.04688   -0.19647
 17 Rh    0.06231   -0.04532   -0.06615
 18 Rh    0.42817    0.24721    0.93253
 19 Rh   -0.42705    0.25417    0.94590
 20 Rh   -0.00690    0.01024   -0.52996
 21 Rh    0.00659   -0.49692    0.94590
 22 Rh    0.21684    0.12519   -0.48078
 23 Rh   -0.22230    0.11928   -0.49021
 24 Rh    0.00542   -0.01110   -0.52996
 25 Rh   -0.00785   -0.25216   -0.49021
 26 Rh   -0.00552   -0.00319   -0.53136
 27 O    -0.00096   -0.00055   -9.29928
 28 C    -0.00209   -0.00121    6.37452

System changes: positions 

Initializing position-dependent things.

Density initialized from wave functions
                                           
                                           
                                           
                                           
                                           
                                           
                                           
           O                               
           C    Rh     Rh     Rh           
                                           
            Rh   RRh    RRh    Rh          
       Rh    RRh   RRh    Rh               
                                           
        Rh     Rh   RRh    Rh    Rh        
                                           
                Rh    Rh     Rh            
           Rh    Rh     Rh                 
                                           
                                           
                                           
                                           

Positions:
   0 Rh     1.357645    0.783837    6.000000    ( 0.0000,  0.0000,  0.0000)
   1 Rh     4.072935    0.783837    6.000000    ( 0.0000,  0.0000,  0.0000)
   2 Rh     6.788225    0.783837    6.000000    ( 0.0000,  0.0000,  0.0000)
   3 Rh     2.715290    3.135347    6.000000    ( 0.0000,  0.0000,  0.0000)
   4 Rh     5.430580    3.135347    6.000000    ( 0.0000,  0.0000,  0.0000)
   5 Rh     8.145870    3.135347    6.000000    ( 0.0000,  0.0000,  0.0000)
   6 Rh     4.072935    5.486857    6.000000    ( 0.0000,  0.0000,  0.0000)
   7 Rh     6.788225    5.486857    6.000000    ( 0.0000,  0.0000,  0.0000)
   8 Rh     9.503515    5.486857    6.000000    ( 0.0000,  0.0000,  0.0000)
   9 Rh    -0.000000    1.567673    8.217025    ( 0.0000,  0.0000,  0.0000)
  10 Rh     2.715290    1.567673    8.217025    ( 0.0000,  0.0000,  0.0000)
  11 Rh     5.430580    1.567673    8.217025    ( 0.0000,  0.0000,  0.0000)
  12 Rh     1.357645    3.919184    8.217025    ( 0.0000,  0.0000,  0.0000)
  13 Rh     4.072935    3.919184    8.217025    ( 0.0000,  0.0000,  0.0000)
  14 Rh     6.788225    3.919184    8.217025    ( 0.0000,  0.0000,  0.0000)
  15 Rh     2.715290    6.270694    8.217025    ( 0.0000,  0.0000,  0.0000)
  16 Rh     5.430580    6.270694    8.217025    ( 0.0000,  0.0000,  0.0000)
  17 Rh     8.145870    6.270694    8.217025    ( 0.0000,  0.0000,  0.0000)
  18 Rh     0.000000    0.000000   10.434050    ( 0.0000,  0.0000,  0.0000)
  19 Rh     2.715290    0.000000   10.434050    ( 0.0000,  0.0000,  0.0000)
  20 Rh     5.430580    0.000000   10.434050    ( 0.0000,  0.0000,  0.0000)
  21 Rh     1.357645    2.351510   10.434050    ( 0.0000,  0.0000,  0.0000)
  22 Rh     4.072935    2.351510   10.434050    ( 0.0000,  0.0000,  0.0000)
  23 Rh     6.788225    2.351510   10.434050    ( 0.0000,  0.0000,  0.0000)
  24 Rh     2.715290    4.703020   10.434050    ( 0.0000,  0.0000,  0.0000)
  25 Rh     5.430580    4.703020   10.434050    ( 0.0000,  0.0000,  0.0000)
  26 Rh     8.145870    4.703020   10.434050    ( 0.0000,  0.0000,  0.0000)
  27 O      1.357645    0.783837   13.584390    ( 0.0000,  0.0000,  0.0000)
  28 C      1.357575    0.783796   12.382479    ( 0.0000,  0.0000,  0.0000)

Unit cell:
           periodic     x           y           z      points  spacing
  1. axis:    yes    8.145870    0.000000    0.000000    40     0.1764
  2. axis:    yes    4.072935    7.054530    0.000000    40     0.1764
  3. axis:    no     0.000000    0.000000   16.434050    81     0.2029

  Lengths:   8.145870   8.145870  16.434050
  Angles:   90.000000  90.000000  60.000000

Effective grid spacing dv^(1/3) = 0.1939

     iter     time        total  log10-change:
                         energy  eigst   dens
iter:   1 15:29:54  -202.857688  -1.38
iter:   2 15:30:01  -201.517189  -2.26  -1.91
iter:   3 15:30:08  -210.315257  -1.92  -1.84
iter:   4 15:30:15  -198.801512  -2.23  -1.50
iter:   5 15:30:21  -198.390157  -2.95  -2.19
iter:   6 15:30:28  -198.041281  -2.91  -2.27
iter:   7 15:30:35  -197.895532  -3.34  -2.41
iter:   8 15:30:41  -197.797636  -3.02  -2.54
iter:   9 15:30:48  -197.786376c -4.12  -2.83
iter:  10 15:30:55  -197.828726c -3.96  -2.90
iter:  11 15:31:01  -197.780244c -4.09  -2.58
iter:  12 15:31:08  -197.769762c -4.67  -2.93
iter:  13 15:31:15  -197.768825c -5.32  -3.17
iter:  14 15:31:21  -197.768676c -5.23  -3.30
iter:  15 15:31:28  -197.768477c -5.50  -3.39
iter:  16 15:31:35  -197.768430c -5.94  -3.57
iter:  17 15:31:42  -197.768379c -6.09  -3.72
iter:  18 15:31:48  -197.768894c -5.92  -3.73
iter:  19 15:31:55  -197.768490c -6.39  -3.66
iter:  20 15:32:02  -197.768410c -6.65  -3.89
iter:  21 15:32:08  -197.768430c -7.17  -4.01c
iter:  22 15:32:15  -197.768413c -6.87  -4.02c
iter:  23 15:32:22  -197.768455c -7.02  -4.07c
iter:  24 15:32:28  -197.768445c -7.87c -4.35c

Converged after 24 iterations.

Dipole moment: (-5.725226, -3.305461, -0.214359) |e|*Ang

Energy contributions relative to reference atoms: (reference = -3516703.949422)

Kinetic:       -184.017126
Potential:      +99.345721
External:        +0.000000
XC:            -110.094711
Entropy (-ST):   -1.728782
Local:           -2.137938
--------------------------
Free energy:   -198.632836
Extrapolated:  -197.768445

Showing only first 2 kpts
 Kpt  Band  Eigenvalues  Occupancy
  0   205      1.63734    1.35715
  0   206      1.70741    1.02327
  0   207      1.71363    0.99216
  0   208      1.74037    0.85943

  1   205      1.61607    1.44621
  1   206      1.61809    1.43809
  1   207      1.69072    1.10632
  1   208      1.71860    0.96731


Fermi level: 1.71206

No gap

Forces in eV/Ang:
  0 Rh    0.00372    0.00215    0.44971
  1 Rh    0.01239   -0.04318    0.42371
  2 Rh   -0.00662   -0.03860    0.42331
  3 Rh   -0.03121    0.03232    0.42371
  4 Rh   -0.00066   -0.00038    0.46795
  5 Rh    0.02974    0.02899    0.42345
  6 Rh   -0.03674    0.01357    0.42331
  7 Rh    0.03998    0.01125    0.42345
  8 Rh    0.01010    0.00583    0.29273
  9 Rh   -0.01427    0.00607   -0.15797
 10 Rh    0.01560    0.00901   -0.16352
 11 Rh    0.00173    0.00769    0.04622
 12 Rh   -0.00757   -0.05986    0.12411
 13 Rh    0.00752   -0.00235    0.04622
 14 Rh   -0.00542   -0.00313    0.04350
 15 Rh    0.05772    0.03332    0.12466
 16 Rh   -0.00188   -0.01539   -0.15797
 17 Rh   -0.05562    0.02337    0.12411
 18 Rh    0.17217    0.09941    0.51340
 19 Rh   -0.17304    0.10417    0.52525
 20 Rh   -0.00492    0.00611   -0.49280
 21 Rh    0.00369   -0.20195    0.52525
 22 Rh    0.15670    0.09047   -0.49210
 23 Rh   -0.16314    0.08503   -0.49959
 24 Rh    0.00283   -0.00732   -0.49280
 25 Rh   -0.00794   -0.18380   -0.49959
 26 Rh   -0.00301   -0.00174   -0.49689
 27 O    -0.00138   -0.00080   -3.36840
 28 C    -0.00246   -0.00142    1.14386

System changes: positions 

Initializing position-dependent things.

Density initialized from wave functions
                                           
                                           
                                           
                                           
                                           
                                           
                                           
           O                               
           C    Rh     Rh     Rh           
                                           
            Rh   RRh    RRh    Rh          
       Rh    RRh   RRh    Rh               
                                           
        Rh     Rh   RRh    Rh    Rh        
                                           
                Rh    Rh     Rh            
           Rh    Rh     Rh                 
                                           
                                           
                                           
                                           

Positions:
   0 Rh     1.357645    0.783837    6.000000    ( 0.0000,  0.0000,  0.0000)
   1 Rh     4.072935    0.783837    6.000000    ( 0.0000,  0.0000,  0.0000)
   2 Rh     6.788225    0.783837    6.000000    ( 0.0000,  0.0000,  0.0000)
   3 Rh     2.715290    3.135347    6.000000    ( 0.0000,  0.0000,  0.0000)
   4 Rh     5.430580    3.135347    6.000000    ( 0.0000,  0.0000,  0.0000)
   5 Rh     8.145870    3.135347    6.000000    ( 0.0000,  0.0000,  0.0000)
   6 Rh     4.072935    5.486857    6.000000    ( 0.0000,  0.0000,  0.0000)
   7 Rh     6.788225    5.486857    6.000000    ( 0.0000,  0.0000,  0.0000)
   8 Rh     9.503515    5.486857    6.000000    ( 0.0000,  0.0000,  0.0000)
   9 Rh    -0.000000    1.567673    8.217025    ( 0.0000,  0.0000,  0.0000)
  10 Rh     2.715290    1.567673    8.217025    ( 0.0000,  0.0000,  0.0000)
  11 Rh     5.430580    1.567673    8.217025    ( 0.0000,  0.0000,  0.0000)
  12 Rh     1.357645    3.919184    8.217025    ( 0.0000,  0.0000,  0.0000)
  13 Rh     4.072935    3.919184    8.217025    ( 0.0000,  0.0000,  0.0000)
  14 Rh     6.788225    3.919184    8.217025    ( 0.0000,  0.0000,  0.0000)
  15 Rh     2.715290    6.270694    8.217025    ( 0.0000,  0.0000,  0.0000)
  16 Rh     5.430580    6.270694    8.217025    ( 0.0000,  0.0000,  0.0000)
  17 Rh     8.145870    6.270694    8.217025    ( 0.0000,  0.0000,  0.0000)
  18 Rh     0.000000    0.000000   10.434050    ( 0.0000,  0.0000,  0.0000)
  19 Rh     2.715290    0.000000   10.434050    ( 0.0000,  0.0000,  0.0000)
  20 Rh     5.430580    0.000000   10.434050    ( 0.0000,  0.0000,  0.0000)
  21 Rh     1.357645    2.351510   10.434050    ( 0.0000,  0.0000,  0.0000)
  22 Rh     4.072935    2.351510   10.434050    ( 0.0000,  0.0000,  0.0000)
  23 Rh     6.788225    2.351510   10.434050    ( 0.0000,  0.0000,  0.0000)
  24 Rh     2.715290    4.703020   10.434050    ( 0.0000,  0.0000,  0.0000)
  25 Rh     5.430580    4.703020   10.434050    ( 0.0000,  0.0000,  0.0000)
  26 Rh     8.145870    4.703020   10.434050    ( 0.0000,  0.0000,  0.0000)
  27 O      1.357645    0.783837   13.584390    ( 0.0000,  0.0000,  0.0000)
  28 C      1.357499    0.783752   12.398684    ( 0.0000,  0.0000,  0.0000)

Unit cell:
           periodic     x           y           z      points  spacing
  1. axis:    yes    8.145870    0.000000    0.000000    40     0.1764
  2. axis:    yes    4.072935    7.054530    0.000000    40     0.1764
  3. axis:    no     0.000000    0.000000   16.434050    81     0.2029

  Lengths:   8.145870   8.145870  16.434050
  Angles:   90.000000  90.000000  60.000000

Effective grid spacing dv^(1/3) = 0.1939

     iter     time        total  log10-change:
                         energy  eigst   dens
iter:   1 15:32:37  -197.834013  -3.53
iter:   2 15:32:44  -197.913813  -3.76  -2.71
iter:   3 15:32:51  -197.806328c -4.07  -2.46
iter:   4 15:32:58  -197.782541c -4.52  -2.88
iter:   5 15:33:04  -197.780328c -4.78  -3.49
iter:   6 15:33:11  -197.779382c -5.48  -3.48
iter:   7 15:33:18  -197.779054c -5.21  -3.62
iter:   8 15:33:24  -197.778813c -5.79  -3.81
iter:   9 15:33:31  -197.778800c -6.61  -3.88
iter:  10 15:33:38  -197.778773c -6.37  -3.95
iter:  11 15:33:44  -197.778578c -6.19  -3.80
iter:  12 15:33:51  -197.778553c -7.14  -4.35c
iter:  13 15:33:58  -197.778530c -7.77c -4.42c

Converged after 13 iterations.

Dipole moment: (-5.739633, -3.313779, -0.173335) |e|*Ang

Energy contributions relative to reference atoms: (reference = -3516703.949422)

Kinetic:       -182.228315
Potential:      +97.862735
External:        +0.000000
XC:            -110.422107
Entropy (-ST):   -1.729265
Local:           -2.126211
--------------------------
Free energy:   -198.643163
Extrapolated:  -197.778530

Showing only first 2 kpts
 Kpt  Band  Eigenvalues  Occupancy
  0   205      1.65203    1.36362
  0   206      1.72463    1.01806
  0   207      1.72974    0.99250
  0   208      1.75629    0.86070

  1   205      1.63198    1.44729
  1   206      1.63411    1.43874
  1   207      1.70727    1.10447
  1   208      1.73514    0.96555


Fermi level: 1.72824

No gap

Forces in eV/Ang:
  0 Rh    0.00387    0.00223    0.45298
  1 Rh    0.01227   -0.04213    0.42555
  2 Rh   -0.00649   -0.03752    0.42523
  3 Rh   -0.03035    0.03169    0.42555
  4 Rh   -0.00059   -0.00034    0.46933
  5 Rh    0.02903    0.02847    0.42536
  6 Rh   -0.03574    0.01314    0.42523
  7 Rh    0.03917    0.01090    0.42536
  8 Rh    0.00999    0.00577    0.30141
  9 Rh   -0.01416    0.00604   -0.16262
 10 Rh    0.01549    0.00894   -0.16799
 11 Rh    0.00165    0.00881    0.04310
 12 Rh   -0.00750   -0.06637    0.12726
 13 Rh    0.00845   -0.00298    0.04310
 14 Rh   -0.00652   -0.00376    0.04036
 15 Rh    0.06325    0.03652    0.12793
 16 Rh   -0.00185   -0.01528   -0.16262
 17 Rh   -0.06122    0.02669    0.12726
 18 Rh    0.14543    0.08397    0.47070
 19 Rh   -0.14623    0.08846    0.48212
 20 Rh   -0.00480    0.00569   -0.49436
 21 Rh    0.00349   -0.17087    0.48212
 22 Rh    0.15734    0.09084   -0.49873
 23 Rh   -0.16370    0.08549   -0.50591
 24 Rh    0.00252   -0.00700   -0.49436
 25 Rh   -0.00781   -0.18452   -0.50591
 26 Rh   -0.00263   -0.00152   -0.49850
 27 O    -0.00154   -0.00089   -2.22723
 28 C    -0.00238   -0.00138    0.07122

System changes: positions 

Initializing position-dependent things.

Density initialized from wave functions
                                           
                                           
                                           
                                           
                                           
                                           
                                           
           O                               
           C    Rh     Rh     Rh           
                                           
            Rh   RRh    RRh    Rh          
       Rh    RRh   RRh    Rh               
                                           
        Rh     Rh   RRh    Rh    Rh        
                                           
                Rh    Rh     Rh            
           Rh    Rh     Rh                 
                                           
                                           
                                           
                                           

Positions:
   0 Rh     1.357645    0.783837    6.000000    ( 0.0000,  0.0000,  0.0000)
   1 Rh     4.072935    0.783837    6.000000    ( 0.0000,  0.0000,  0.0000)
   2 Rh     6.788225    0.783837    6.000000    ( 0.0000,  0.0000,  0.0000)
   3 Rh     2.715290    3.135347    6.000000    ( 0.0000,  0.0000,  0.0000)
   4 Rh     5.430580    3.135347    6.000000    ( 0.0000,  0.0000,  0.0000)
   5 Rh     8.145870    3.135347    6.000000    ( 0.0000,  0.0000,  0.0000)
   6 Rh     4.072935    5.486857    6.000000    ( 0.0000,  0.0000,  0.0000)
   7 Rh     6.788225    5.486857    6.000000    ( 0.0000,  0.0000,  0.0000)
   8 Rh     9.503515    5.486857    6.000000    ( 0.0000,  0.0000,  0.0000)
   9 Rh    -0.000000    1.567673    8.217025    ( 0.0000,  0.0000,  0.0000)
  10 Rh     2.715290    1.567673    8.217025    ( 0.0000,  0.0000,  0.0000)
  11 Rh     5.430580    1.567673    8.217025    ( 0.0000,  0.0000,  0.0000)
  12 Rh     1.357645    3.919184    8.217025    ( 0.0000,  0.0000,  0.0000)
  13 Rh     4.072935    3.919184    8.217025    ( 0.0000,  0.0000,  0.0000)
  14 Rh     6.788225    3.919184    8.217025    ( 0.0000,  0.0000,  0.0000)
  15 Rh     2.715290    6.270694    8.217025    ( 0.0000,  0.0000,  0.0000)
  16 Rh     5.430580    6.270694    8.217025    ( 0.0000,  0.0000,  0.0000)
  17 Rh     8.145870    6.270694    8.217025    ( 0.0000,  0.0000,  0.0000)
  18 Rh     0.000000    0.000000   10.434050    ( 0.0000,  0.0000,  0.0000)
  19 Rh     2.715290    0.000000   10.434050    ( 0.0000,  0.0000,  0.0000)
  20 Rh     5.430580    0.000000   10.434050    ( 0.0000,  0.0000,  0.0000)
  21 Rh     1.357645    2.351510   10.434050    ( 0.0000,  0.0000,  0.0000)
  22 Rh     4.072935    2.351510   10.434050    ( 0.0000,  0.0000,  0.0000)
  23 Rh     6.788225    2.351510   10.434050    ( 0.0000,  0.0000,  0.0000)
  24 Rh     2.715290    4.703020   10.434050    ( 0.0000,  0.0000,  0.0000)
  25 Rh     5.430580    4.703020   10.434050    ( 0.0000,  0.0000,  0.0000)
  26 Rh     8.145870    4.703020   10.434050    ( 0.0000,  0.0000,  0.0000)
  27 O      1.357645    0.783837   13.584390    ( 0.0000,  0.0000,  0.0000)
  28 C      1.357417    0.783705   12.399486    ( 0.0000,  0.0000,  0.0000)

Unit cell:
           periodic     x           y           z      points  spacing
  1. axis:    yes    8.145870    0.000000    0.000000    40     0.1764
  2. axis:    yes    4.072935    7.054530    0.000000    40     0.1764
  3. axis:    no     0.000000    0.000000   16.434050    81     0.2029

  Lengths:   8.145870   8.145870  16.434050
  Angles:   90.000000  90.000000  60.000000

Effective grid spacing dv^(1/3) = 0.1939

     iter     time        total  log10-change:
                         energy  eigst   dens
iter:   1 15:34:07  -197.782667  -5.42
iter:   2 15:34:13  -197.808178  -4.55  -3.25
iter:   3 15:34:20  -197.778646c -4.93  -2.79
iter:   4 15:34:27  -197.778649c -6.29  -4.21c
iter:   5 15:34:34  -197.778609c -6.84  -4.33c
iter:   6 15:34:40  -197.778610c -7.77c -4.64c

Converged after 6 iterations.

Dipole moment: (-5.743077, -3.315767, -0.170599) |e|*Ang

Energy contributions relative to reference atoms: (reference = -3516703.949422)

Kinetic:       -181.898130
Potential:      +97.589318
External:        +0.000000
XC:            -110.444022
Entropy (-ST):   -1.729190
Local:           -2.161182
--------------------------
Free energy:   -198.643205
Extrapolated:  -197.778610

Showing only first 2 kpts
 Kpt  Band  Eigenvalues  Occupancy
  0   205      1.65203    1.36375
  0   206      1.72477    1.01750
  0   207      1.72986    0.99206
  0   208      1.75636    0.86050

  1   205      1.63195    1.44754
  1   206      1.63408    1.43897
  1   207      1.70737    1.10416
  1   208      1.73525    0.96512


Fermi level: 1.72827

No gap

Forces in eV/Ang:
  0 Rh    0.00380    0.00219    0.44622
  1 Rh    0.01289   -0.04224    0.41860
  2 Rh   -0.00700   -0.03750    0.41829
  3 Rh   -0.03014    0.03228    0.41860
  4 Rh   -0.00046   -0.00026    0.46249
  5 Rh    0.02872    0.02903    0.41835
  6 Rh   -0.03598    0.01269    0.41829
  7 Rh    0.03950    0.01036    0.41835
  8 Rh    0.00994    0.00574    0.29306
  9 Rh   -0.01228    0.00499   -0.16097
 10 Rh    0.01349    0.00779   -0.16623
 11 Rh    0.00177    0.00855    0.04235
 12 Rh   -0.00764   -0.06829    0.12827
 13 Rh    0.00829   -0.00274    0.04235
 14 Rh   -0.00625   -0.00361    0.03960
 15 Rh    0.06491    0.03747    0.12890
 16 Rh   -0.00181   -0.01313   -0.16097
 17 Rh   -0.06297    0.02753    0.12827
 18 Rh    0.12658    0.07308    0.45913
 19 Rh   -0.12705    0.07709    0.46998
 20 Rh   -0.00486    0.00431   -0.49928
 21 Rh    0.00324   -0.14858    0.46998
 22 Rh    0.16331    0.09429   -0.50356
 23 Rh   -0.16947    0.08898   -0.51054
 24 Rh    0.00130   -0.00637   -0.49928
 25 Rh   -0.00768   -0.19126   -0.51054
 26 Rh   -0.00157   -0.00090   -0.50327
 27 O    -0.00207   -0.00119   -2.22723
 28 C    -0.00328   -0.00189    0.05703

System changes: positions 

Initializing position-dependent things.

Density initialized from wave functions
                                           
                                           
                                           
                                           
                                           
                                           
                                           
           O                               
           C    Rh     Rh     Rh           
                                           
            Rh   RRh    RRh    Rh          
       Rh    RRh   RRh    Rh               
                                           
        Rh     Rh   RRh    Rh    Rh        
                                           
                Rh    Rh     Rh            
           Rh    Rh     Rh                 
                                           
                                           
                                           
                                           

Positions:
   0 Rh     1.357645    0.783837    6.000000    ( 0.0000,  0.0000,  0.0000)
   1 Rh     4.072935    0.783837    6.000000    ( 0.0000,  0.0000,  0.0000)
   2 Rh     6.788225    0.783837    6.000000    ( 0.0000,  0.0000,  0.0000)
   3 Rh     2.715290    3.135347    6.000000    ( 0.0000,  0.0000,  0.0000)
   4 Rh     5.430580    3.135347    6.000000    ( 0.0000,  0.0000,  0.0000)
   5 Rh     8.145870    3.135347    6.000000    ( 0.0000,  0.0000,  0.0000)
   6 Rh     4.072935    5.486857    6.000000    ( 0.0000,  0.0000,  0.0000)
   7 Rh     6.788225    5.486857    6.000000    ( 0.0000,  0.0000,  0.0000)
   8 Rh     9.503515    5.486857    6.000000    ( 0.0000,  0.0000,  0.0000)
   9 Rh    -0.000000    1.567673    8.217025    ( 0.0000,  0.0000,  0.0000)
  10 Rh     2.715290    1.567673    8.217025    ( 0.0000,  0.0000,  0.0000)
  11 Rh     5.430580    1.567673    8.217025    ( 0.0000,  0.0000,  0.0000)
  12 Rh     1.357645    3.919184    8.217025    ( 0.0000,  0.0000,  0.0000)
  13 Rh     4.072935    3.919184    8.217025    ( 0.0000,  0.0000,  0.0000)
  14 Rh     6.788225    3.919184    8.217025    ( 0.0000,  0.0000,  0.0000)
  15 Rh     2.715290    6.270694    8.217025    ( 0.0000,  0.0000,  0.0000)
  16 Rh     5.430580    6.270694    8.217025    ( 0.0000,  0.0000,  0.0000)
  17 Rh     8.145870    6.270694    8.217025    ( 0.0000,  0.0000,  0.0000)
  18 Rh     0.000000    0.000000   10.434050    ( 0.0000,  0.0000,  0.0000)
  19 Rh     2.715290    0.000000   10.434050    ( 0.0000,  0.0000,  0.0000)
  20 Rh     5.430580    0.000000   10.434050    ( 0.0000,  0.0000,  0.0000)
  21 Rh     1.357645    2.351510   10.434050    ( 0.0000,  0.0000,  0.0000)
  22 Rh     4.072935    2.351510   10.434050    ( 0.0000,  0.0000,  0.0000)
  23 Rh     6.788225    2.351510   10.434050    ( 0.0000,  0.0000,  0.0000)
  24 Rh     2.715290    4.703020   10.434050    ( 0.0000,  0.0000,  0.0000)
  25 Rh     5.430580    4.703020   10.434050    ( 0.0000,  0.0000,  0.0000)
  26 Rh     8.145870    4.703020   10.434050    ( 0.0000,  0.0000,  0.0000)
  27 O      1.357645    0.783837   13.584390    ( 0.0000,  0.0000,  0.0000)
  28 C      1.357314    0.783645   12.399859    ( 0.0000,  0.0000,  0.0000)

Unit cell:
           periodic     x           y           z      points  spacing
  1. axis:    yes    8.145870    0.000000    0.000000    40     0.1764
  2. axis:    yes    4.072935    7.054530    0.000000    40     0.1764
  3. axis:    no     0.000000    0.000000   16.434050    81     0.2029

  Lengths:   8.145870   8.145870  16.434050
  Angles:   90.000000  90.000000  60.000000

Effective grid spacing dv^(1/3) = 0.1939

     iter     time        total  log10-change:
                         energy  eigst   dens
iter:   1 15:34:49  -197.778842  -6.05
iter:   2 15:34:56  -197.782587  -5.34  -3.62
iter:   3 15:35:03  -197.778579c -5.79  -3.26
iter:   4 15:35:09  -197.778560c -7.36  -4.21c
iter:   5 15:35:16  -197.778582c -7.61c -4.72c

Converged after 5 iterations.

Dipole moment: (-5.743154, -3.315811, -0.169982) |e|*Ang

Energy contributions relative to reference atoms: (reference = -3516703.949422)

Kinetic:       -182.065465
Potential:      +97.754697
External:        +0.000000
XC:            -110.434869
Entropy (-ST):   -1.729246
Local:           -2.168322
--------------------------
Free energy:   -198.643205
Extrapolated:  -197.778582

Showing only first 2 kpts
 Kpt  Band  Eigenvalues  Occupancy
  0   205      1.65231    1.36386
  0   206      1.72506    1.01759
  0   207      1.73012    0.99229
  0   208      1.75659    0.86082

  1   205      1.63225    1.44757
  1   206      1.63440    1.43892
  1   207      1.70760    1.10447
  1   208      1.73555    0.96516


Fermi level: 1.72858

No gap

Forces in eV/Ang:
  0 Rh    0.00371    0.00214    0.44886
  1 Rh    0.01280   -0.04256    0.42110
  2 Rh   -0.00685   -0.03771    0.42071
  3 Rh   -0.03045    0.03237    0.42110
  4 Rh   -0.00030   -0.00018    0.46467
  5 Rh    0.02888    0.02914    0.42071
  6 Rh   -0.03608    0.01293    0.42071
  7 Rh    0.03968    0.01044    0.42071
  8 Rh    0.00986    0.00569    0.29672
  9 Rh   -0.01318    0.00558   -0.16166
 10 Rh    0.01428    0.00824   -0.16689
 11 Rh    0.00191    0.00850    0.04165
 12 Rh   -0.00781   -0.06646    0.12645
 13 Rh    0.00831   -0.00259    0.04165
 14 Rh   -0.00610   -0.00352    0.03894
 15 Rh    0.06338    0.03659    0.12706
 16 Rh   -0.00176   -0.01421   -0.16166
 17 Rh   -0.06146    0.02647    0.12645
 18 Rh    0.13781    0.07956    0.46803
 19 Rh   -0.13806    0.08336    0.47841
 20 Rh   -0.00485    0.00460   -0.49514
 21 Rh    0.00317   -0.16124    0.47841
 22 Rh    0.15932    0.09198   -0.49924
 23 Rh   -0.16540    0.08678   -0.50625
 24 Rh    0.00156   -0.00650   -0.49514
 25 Rh   -0.00755   -0.18663   -0.50625
 26 Rh   -0.00192   -0.00111   -0.49912
 27 O    -0.00225   -0.00130   -2.16061
 28 C    -0.00330   -0.00191   -0.00185

System changes: positions 

Initializing position-dependent things.

Density initialized from wave functions
                                           
                                           
                                           
                                           
                                           
                                           
                                           
           O                               
           C    Rh     Rh     Rh           
                                           
            Rh   RRh    RRh    Rh          
       Rh    RRh   RRh    Rh               
                                           
        Rh     Rh   RRh    Rh    Rh        
                                           
                Rh    Rh     Rh            
           Rh    Rh     Rh                 
                                           
                                           
                                           
                                           

Positions:
   0 Rh     1.357645    0.783837    6.000000    ( 0.0000,  0.0000,  0.0000)
   1 Rh     4.072935    0.783837    6.000000    ( 0.0000,  0.0000,  0.0000)
   2 Rh     6.788225    0.783837    6.000000    ( 0.0000,  0.0000,  0.0000)
   3 Rh     2.715290    3.135347    6.000000    ( 0.0000,  0.0000,  0.0000)
   4 Rh     5.430580    3.135347    6.000000    ( 0.0000,  0.0000,  0.0000)
   5 Rh     8.145870    3.135347    6.000000    ( 0.0000,  0.0000,  0.0000)
   6 Rh     4.072935    5.486857    6.000000    ( 0.0000,  0.0000,  0.0000)
   7 Rh     6.788225    5.486857    6.000000    ( 0.0000,  0.0000,  0.0000)
   8 Rh     9.503515    5.486857    6.000000    ( 0.0000,  0.0000,  0.0000)
   9 Rh    -0.000000    1.567673    8.217025    ( 0.0000,  0.0000,  0.0000)
  10 Rh     2.715290    1.567673    8.217025    ( 0.0000,  0.0000,  0.0000)
  11 Rh     5.430580    1.567673    8.217025    ( 0.0000,  0.0000,  0.0000)
  12 Rh     1.357645    3.919184    8.217025    ( 0.0000,  0.0000,  0.0000)
  13 Rh     4.072935    3.919184    8.217025    ( 0.0000,  0.0000,  0.0000)
  14 Rh     6.788225    3.919184    8.217025    ( 0.0000,  0.0000,  0.0000)
  15 Rh     2.715290    6.270694    8.217025    ( 0.0000,  0.0000,  0.0000)
  16 Rh     5.430580    6.270694    8.217025    ( 0.0000,  0.0000,  0.0000)
  17 Rh     8.145870    6.270694    8.217025    ( 0.0000,  0.0000,  0.0000)
  18 Rh     0.000000    0.000000   10.434050    ( 0.0000,  0.0000,  0.0000)
  19 Rh     2.715290    0.000000   10.434050    ( 0.0000,  0.0000,  0.0000)
  20 Rh     5.430580    0.000000   10.434050    ( 0.0000,  0.0000,  0.0000)
  21 Rh     1.357645    2.351510   10.434050    ( 0.0000,  0.0000,  0.0000)
  22 Rh     4.072935    2.351510   10.434050    ( 0.0000,  0.0000,  0.0000)
  23 Rh     6.788225    2.351510   10.434050    ( 0.0000,  0.0000,  0.0000)
  24 Rh     2.715290    4.703020   10.434050    ( 0.0000,  0.0000,  0.0000)
  25 Rh     5.430580    4.703020   10.434050    ( 0.0000,  0.0000,  0.0000)
  26 Rh     8.145870    4.703020   10.434050    ( 0.0000,  0.0000,  0.0000)
  27 O      1.357645    0.783837   13.584390    ( 0.0000,  0.0000,  0.0000)
  28 C      1.355565    0.782636   12.399849    ( 0.0000,  0.0000,  0.0000)

Unit cell:
           periodic     x           y           z      points  spacing
  1. axis:    yes    8.145870    0.000000    0.000000    40     0.1764
  2. axis:    yes    4.072935    7.054530    0.000000    40     0.1764
  3. axis:    no     0.000000    0.000000   16.434050    81     0.2029

  Lengths:   8.145870   8.145870  16.434050
  Angles:   90.000000  90.000000  60.000000

Effective grid spacing dv^(1/3) = 0.1939

     iter     time        total  log10-change:
                         energy  eigst   dens
iter:   1 15:35:25  -197.778838  -5.58
iter:   2 15:35:32  -197.778730  -6.02  -3.89
iter:   3 15:35:38  -197.778905c -6.48  -3.90
iter:   4 15:35:45  -197.778618c -7.13  -3.87
iter:   5 15:35:52  -197.778609c -8.02c -4.79c

Converged after 5 iterations.

Dipole moment: (-5.754985, -3.322642, -0.168712) |e|*Ang

Energy contributions relative to reference atoms: (reference = -3516703.949422)

Kinetic:       -181.992291
Potential:      +97.692419
External:        +0.000000
XC:            -110.437985
Entropy (-ST):   -1.729205
Local:           -2.176149
--------------------------
Free energy:   -198.643211
Extrapolated:  -197.778609

Showing only first 2 kpts
 Kpt  Band  Eigenvalues  Occupancy
  0   205      1.65253    1.36362
  0   206      1.72520    1.01770
  0   207      1.73033    0.99203
  0   208      1.75682    0.86053

  1   205      1.63233    1.44788
  1   206      1.63463    1.43866
  1   207      1.70783    1.10419
  1   208      1.73565    0.96548


Fermi level: 1.72874

No gap

Forces in eV/Ang:
  0 Rh    0.00389    0.00224    0.44536
  1 Rh    0.01270   -0.04233    0.41722
  2 Rh   -0.00699   -0.03734    0.41697
  3 Rh   -0.03030    0.03216    0.41722
  4 Rh   -0.00039   -0.00022    0.46099
  5 Rh    0.02885    0.02890    0.41698
  6 Rh   -0.03584    0.01261    0.41697
  7 Rh    0.03945    0.01054    0.41698
  8 Rh    0.01013    0.00585    0.29271
  9 Rh   -0.01238    0.00569   -0.16151
 10 Rh    0.01379    0.00796   -0.16595
 11 Rh    0.00175    0.00867    0.04281
 12 Rh   -0.00750   -0.06854    0.12879
 13 Rh    0.00838   -0.00282    0.04281
 14 Rh   -0.00652   -0.00376    0.04009
 15 Rh    0.06408    0.03700    0.12829
 16 Rh   -0.00127   -0.01356   -0.16151
 17 Rh   -0.06311    0.02778    0.12879
 18 Rh    0.13666    0.07890    0.47299
 19 Rh   -0.12869    0.07386    0.47041
 20 Rh   -0.00522    0.00450   -0.49563
 21 Rh   -0.00038   -0.14838    0.47041
 22 Rh    0.16335    0.09431   -0.50137
 23 Rh   -0.16785    0.08798   -0.50631
 24 Rh    0.00128   -0.00677   -0.49563
 25 Rh   -0.00773   -0.18936   -0.50631
 26 Rh   -0.00151   -0.00087   -0.49982
 27 O    -0.01456   -0.00841   -2.15076
 28 C    -0.02620   -0.01513   -0.00896

System changes: positions 

Initializing position-dependent things.

Density initialized from wave functions
                                           
                                           
                                           
                                           
                                           
                                           
                                           
           O                               
          C     Rh     Rh     Rh           
                                           
            Rh   RRh    RRh    Rh          
       Rh    RRh   RRh    Rh               
                                           
        Rh     Rh   RRh    Rh    Rh        
                                           
                Rh    Rh     Rh            
           Rh    Rh     Rh                 
                                           
                                           
                                           
                                           

Positions:
   0 Rh     1.357645    0.783837    6.000000    ( 0.0000,  0.0000,  0.0000)
   1 Rh     4.072935    0.783837    6.000000    ( 0.0000,  0.0000,  0.0000)
   2 Rh     6.788225    0.783837    6.000000    ( 0.0000,  0.0000,  0.0000)
   3 Rh     2.715290    3.135347    6.000000    ( 0.0000,  0.0000,  0.0000)
   4 Rh     5.430580    3.135347    6.000000    ( 0.0000,  0.0000,  0.0000)
   5 Rh     8.145870    3.135347    6.000000    ( 0.0000,  0.0000,  0.0000)
   6 Rh     4.072935    5.486857    6.000000    ( 0.0000,  0.0000,  0.0000)
   7 Rh     6.788225    5.486857    6.000000    ( 0.0000,  0.0000,  0.0000)
   8 Rh     9.503515    5.486857    6.000000    ( 0.0000,  0.0000,  0.0000)
   9 Rh    -0.000000    1.567673    8.217025    ( 0.0000,  0.0000,  0.0000)
  10 Rh     2.715290    1.567673    8.217025    ( 0.0000,  0.0000,  0.0000)
  11 Rh     5.430580    1.567673    8.217025    ( 0.0000,  0.0000,  0.0000)
  12 Rh     1.357645    3.919184    8.217025    ( 0.0000,  0.0000,  0.0000)
  13 Rh     4.072935    3.919184    8.217025    ( 0.0000,  0.0000,  0.0000)
  14 Rh     6.788225    3.919184    8.217025    ( 0.0000,  0.0000,  0.0000)
  15 Rh     2.715290    6.270694    8.217025    ( 0.0000,  0.0000,  0.0000)
  16 Rh     5.430580    6.270694    8.217025    ( 0.0000,  0.0000,  0.0000)
  17 Rh     8.145870    6.270694    8.217025    ( 0.0000,  0.0000,  0.0000)
  18 Rh     0.000000    0.000000   10.434050    ( 0.0000,  0.0000,  0.0000)
  19 Rh     2.715290    0.000000   10.434050    ( 0.0000,  0.0000,  0.0000)
  20 Rh     5.430580    0.000000   10.434050    ( 0.0000,  0.0000,  0.0000)
  21 Rh     1.357645    2.351510   10.434050    ( 0.0000,  0.0000,  0.0000)
  22 Rh     4.072935    2.351510   10.434050    ( 0.0000,  0.0000,  0.0000)
  23 Rh     6.788225    2.351510   10.434050    ( 0.0000,  0.0000,  0.0000)
  24 Rh     2.715290    4.703020   10.434050    ( 0.0000,  0.0000,  0.0000)
  25 Rh     5.430580    4.703020   10.434050    ( 0.0000,  0.0000,  0.0000)
  26 Rh     8.145870    4.703020   10.434050    ( 0.0000,  0.0000,  0.0000)
  27 O      1.357645    0.783837   13.584390    ( 0.0000,  0.0000,  0.0000)
  28 C      1.009077    0.582591   12.390884    ( 0.0000,  0.0000,  0.0000)

Unit cell:
           periodic     x           y           z      points  spacing
  1. axis:    yes    8.145870    0.000000    0.000000    40     0.1764
  2. axis:    yes    4.072935    7.054530    0.000000    40     0.1764
  3. axis:    no     0.000000    0.000000   16.434050    81     0.2029

  Lengths:   8.145870   8.145870  16.434050
  Angles:   90.000000  90.000000  60.000000

Effective grid spacing dv^(1/3) = 0.1939

     iter     time        total  log10-change:
                         energy  eigst   dens
iter:   1 15:36:01  -201.831048  -1.00
iter:   2 15:36:07  -206.976149  -1.80  -1.80
iter:   3 15:36:14  -200.848987  -1.99  -1.53
iter:   4 15:36:21  -198.175371  -2.64  -1.79
iter:   5 15:36:27  -197.790324  -3.06  -2.21
iter:   6 15:36:34  -197.703311  -3.36  -2.52
iter:   7 15:36:41  -197.625400c -3.43  -2.52
iter:   8 15:36:48  -197.609389c -3.75  -2.79
iter:   9 15:36:54  -197.594567c -3.81  -2.73
iter:  10 15:37:01  -197.585144c -4.62  -2.87
iter:  11 15:37:08  -197.580096c -4.62  -2.95
iter:  12 15:37:14  -197.574998c -4.65  -3.07
iter:  13 15:37:21  -197.573971c -4.99  -3.33
iter:  14 15:37:28  -197.574037c -5.37  -3.47
iter:  15 15:37:35  -197.574064c -5.82  -3.54
iter:  16 15:37:41  -197.575487c -5.48  -3.55
iter:  17 15:37:48  -197.573792c -5.77  -3.32
iter:  18 15:37:55  -197.573806c -6.30  -3.86
iter:  19 15:38:01  -197.573861c -6.47  -3.87
iter:  20 15:38:08  -197.573668c -6.34  -3.90
iter:  21 15:38:15  -197.573680c -6.85  -4.15c
iter:  22 15:38:21  -197.573696c -6.57  -4.20c
iter:  23 15:38:28  -197.573635c -7.20  -4.02c
iter:  24 15:38:35  -197.573640c -7.61c -4.46c

Converged after 24 iterations.

Dipole moment: (-8.577300, -4.952106, -0.281316) |e|*Ang

Energy contributions relative to reference atoms: (reference = -3516703.949422)

Kinetic:       -189.534491
Potential:     +103.836528
External:        +0.000000
XC:            -108.849353
Entropy (-ST):   -1.713186
Local:           -2.169732
--------------------------
Free energy:   -198.430233
Extrapolated:  -197.573640

Showing only first 2 kpts
 Kpt  Band  Eigenvalues  Occupancy
  0   205      1.62940    1.28395
  0   206      1.68988    0.98955
  0   207      1.69481    0.96495
  0   208      1.71637    0.85807

  1   205      1.57833    1.49850
  1   206      1.60508    1.39149
  1   207      1.66567    1.11018
  1   208      1.69085    0.98471


Fermi level: 1.68779

No gap

Forces in eV/Ang:
  0 Rh   -0.01295   -0.00747    0.45276
  1 Rh    0.00598   -0.05061    0.42438
  2 Rh    0.00396   -0.01584    0.45046
  3 Rh   -0.04084    0.03049    0.42438
  4 Rh    0.01432    0.00827    0.45434
  5 Rh    0.02130    0.05815    0.38336
  6 Rh   -0.01174    0.01135    0.45046
  7 Rh    0.06101   -0.01063    0.38336
  8 Rh   -0.04118   -0.02377    0.28509
  9 Rh   -0.01773   -0.00016   -0.19930
 10 Rh    0.02155    0.01244   -0.07273
 11 Rh    0.00412    0.00322    0.03023
 12 Rh    0.00330   -0.01597    0.02688
 13 Rh    0.00485    0.00196    0.03023
 14 Rh   -0.02125   -0.01227    0.05390
 15 Rh    0.15840    0.09145    0.28008
 16 Rh   -0.00901   -0.01527   -0.19930
 17 Rh   -0.01218    0.01084    0.02688
 18 Rh    0.50062    0.28903    1.58926
 19 Rh    0.08833    0.04813    0.05100
 20 Rh   -0.13225   -0.00342   -0.51211
 21 Rh    0.08585    0.05243    0.05100
 22 Rh    0.07188    0.04150   -0.46799
 23 Rh   -0.17803    0.16182   -0.51052
 24 Rh   -0.06908   -0.11283   -0.51211
 25 Rh    0.05112   -0.23509   -0.51052
 26 Rh    0.00905    0.00523   -0.45121
 27 O    -2.01498   -1.16335   -6.51444
 28 C     1.46322    0.84479    4.11589

System changes: positions 

Initializing position-dependent things.

Density initialized from wave functions
                                           
                                           
                                           
                                           
                                           
                                           
                                           
           O                               
          C     Rh     Rh     Rh           
                                           
            Rh   RRh    RRh    Rh          
       Rh    RRh   RRh    Rh               
                                           
        Rh     Rh   RRh    Rh    Rh        
                                           
                Rh    Rh     Rh            
           Rh    Rh     Rh                 
                                           
                                           
                                           
                                           

Positions:
   0 Rh     1.357645    0.783837    6.000000    ( 0.0000,  0.0000,  0.0000)
   1 Rh     4.072935    0.783837    6.000000    ( 0.0000,  0.0000,  0.0000)
   2 Rh     6.788225    0.783837    6.000000    ( 0.0000,  0.0000,  0.0000)
   3 Rh     2.715290    3.135347    6.000000    ( 0.0000,  0.0000,  0.0000)
   4 Rh     5.430580    3.135347    6.000000    ( 0.0000,  0.0000,  0.0000)
   5 Rh     8.145870    3.135347    6.000000    ( 0.0000,  0.0000,  0.0000)
   6 Rh     4.072935    5.486857    6.000000    ( 0.0000,  0.0000,  0.0000)
   7 Rh     6.788225    5.486857    6.000000    ( 0.0000,  0.0000,  0.0000)
   8 Rh     9.503515    5.486857    6.000000    ( 0.0000,  0.0000,  0.0000)
   9 Rh    -0.000000    1.567673    8.217025    ( 0.0000,  0.0000,  0.0000)
  10 Rh     2.715290    1.567673    8.217025    ( 0.0000,  0.0000,  0.0000)
  11 Rh     5.430580    1.567673    8.217025    ( 0.0000,  0.0000,  0.0000)
  12 Rh     1.357645    3.919184    8.217025    ( 0.0000,  0.0000,  0.0000)
  13 Rh     4.072935    3.919184    8.217025    ( 0.0000,  0.0000,  0.0000)
  14 Rh     6.788225    3.919184    8.217025    ( 0.0000,  0.0000,  0.0000)
  15 Rh     2.715290    6.270694    8.217025    ( 0.0000,  0.0000,  0.0000)
  16 Rh     5.430580    6.270694    8.217025    ( 0.0000,  0.0000,  0.0000)
  17 Rh     8.145870    6.270694    8.217025    ( 0.0000,  0.0000,  0.0000)
  18 Rh     0.000000    0.000000   10.434050    ( 0.0000,  0.0000,  0.0000)
  19 Rh     2.715290    0.000000   10.434050    ( 0.0000,  0.0000,  0.0000)
  20 Rh     5.430580    0.000000   10.434050    ( 0.0000,  0.0000,  0.0000)
  21 Rh     1.357645    2.351510   10.434050    ( 0.0000,  0.0000,  0.0000)
  22 Rh     4.072935    2.351510   10.434050    ( 0.0000,  0.0000,  0.0000)
  23 Rh     6.788225    2.351510   10.434050    ( 0.0000,  0.0000,  0.0000)
  24 Rh     2.715290    4.703020   10.434050    ( 0.0000,  0.0000,  0.0000)
  25 Rh     5.430580    4.703020   10.434050    ( 0.0000,  0.0000,  0.0000)
  26 Rh     8.145870    4.703020   10.434050    ( 0.0000,  0.0000,  0.0000)
  27 O      1.357645    0.783837   13.584390    ( 0.0000,  0.0000,  0.0000)
  28 C      1.188240    0.686031   12.415095    ( 0.0000,  0.0000,  0.0000)

Unit cell:
           periodic     x           y           z      points  spacing
  1. axis:    yes    8.145870    0.000000    0.000000    40     0.1764
  2. axis:    yes    4.072935    7.054530    0.000000    40     0.1764
  3. axis:    no     0.000000    0.000000   16.434050    81     0.2029

  Lengths:   8.145870   8.145870  16.434050
  Angles:   90.000000  90.000000  60.000000

Effective grid spacing dv^(1/3) = 0.1939

     iter     time        total  log10-change:
                         energy  eigst   dens
iter:   1 15:38:44  -198.602273  -1.82
iter:   2 15:38:50  -200.091617  -2.42  -2.14
iter:   3 15:38:57  -198.143238  -2.81  -1.86
iter:   4 15:39:04  -197.892890  -3.71  -2.31
iter:   5 15:39:10  -197.808910  -3.41  -2.75
iter:   6 15:39:17  -197.799538c -4.22  -2.82
iter:   7 15:39:24  -197.791726c -4.91  -2.87
iter:   8 15:39:31  -197.781352c -3.85  -3.00
iter:   9 15:39:37  -197.781984c -4.74  -3.25
iter:  10 15:39:44  -197.779836c -5.38  -3.18
iter:  11 15:39:51  -197.778617c -5.06  -3.38
iter:  12 15:39:57  -197.778441c -5.52  -3.52
iter:  13 15:40:04  -197.778318c -6.07  -3.70
iter:  14 15:40:11  -197.778360c -6.22  -3.79
iter:  15 15:40:17  -197.778532c -6.01  -3.87
iter:  16 15:40:24  -197.778443c -6.87  -3.94
iter:  17 15:40:31  -197.778473c -7.01  -4.11c
iter:  18 15:40:37  -197.778433c -6.71  -4.16c
iter:  19 15:40:44  -197.778437c -6.94  -4.39c
iter:  20 15:40:51  -197.778422c -7.47c -4.47c

Converged after 20 iterations.

Dipole moment: (-6.915347, -3.992578, -0.155557) |e|*Ang

Energy contributions relative to reference atoms: (reference = -3516703.949422)

Kinetic:       -182.318693
Potential:      +97.909296
External:        +0.000000
XC:            -110.354822
Entropy (-ST):   -1.724345
Local:           -2.152031
--------------------------
Free energy:   -198.640594
Extrapolated:  -197.778422

Showing only first 2 kpts
 Kpt  Band  Eigenvalues  Occupancy
  0   205      1.66397    1.33770
  0   206      1.73418    1.00044
  0   207      1.73792    0.98175
  0   208      1.76283    0.85818

  1   205      1.63103    1.47475
  1   206      1.64637    1.41321
  1   207      1.71414    1.10033
  1   208      1.73722    0.98524


Fermi level: 1.73427

No gap

Forces in eV/Ang:
  0 Rh   -0.00642   -0.00371    0.45048
  1 Rh    0.01104   -0.04880    0.42348
  2 Rh   -0.00087   -0.02502    0.43567
  3 Rh   -0.03674    0.03396    0.42348
  4 Rh    0.00671    0.00388    0.46132
  5 Rh    0.02492    0.04027    0.40265
  6 Rh   -0.02210    0.01176    0.43567
  7 Rh    0.04734    0.00144    0.40265
  8 Rh   -0.01567   -0.00905    0.30060
  9 Rh   -0.01206    0.00224   -0.18363
 10 Rh    0.01637    0.00945   -0.12044
 11 Rh    0.00190    0.00468    0.03313
 12 Rh    0.00009   -0.04333    0.07346
 13 Rh    0.00500   -0.00069    0.03313
 14 Rh   -0.01433   -0.00827    0.04461
 15 Rh    0.11982    0.06918    0.23177
 16 Rh   -0.00409   -0.01157   -0.18363
 17 Rh   -0.03748    0.02174    0.07346
 18 Rh    0.32051    0.18505    0.97061
 19 Rh    0.01222    0.04054    0.21401
 20 Rh   -0.06236    0.00114   -0.48911
 21 Rh    0.04122   -0.00968    0.21401
 22 Rh    0.11516    0.06649   -0.47225
 23 Rh   -0.17611    0.12205   -0.49794
 24 Rh   -0.03020   -0.05458   -0.48911
 25 Rh    0.01765   -0.21354   -0.49794
 26 Rh    0.00370    0.00214   -0.46096
 27 O    -0.37505   -0.21654   -2.27772
 28 C     0.05769    0.03331    0.14045

System changes: positions 

Initializing position-dependent things.

Density initialized from wave functions
                                           
                                           
                                           
                                           
                                           
                                           
                                           
           O                               
           C    Rh     Rh     Rh           
                                           
            Rh   RRh    RRh    Rh          
       Rh    RRh   RRh    Rh               
                                           
        Rh     Rh   RRh    Rh    Rh        
                                           
                Rh    Rh     Rh            
           Rh    Rh     Rh                 
                                           
                                           
                                           
                                           

Positions:
   0 Rh     1.357645    0.783837    6.000000    ( 0.0000,  0.0000,  0.0000)
   1 Rh     4.072935    0.783837    6.000000    ( 0.0000,  0.0000,  0.0000)
   2 Rh     6.788225    0.783837    6.000000    ( 0.0000,  0.0000,  0.0000)
   3 Rh     2.715290    3.135347    6.000000    ( 0.0000,  0.0000,  0.0000)
   4 Rh     5.430580    3.135347    6.000000    ( 0.0000,  0.0000,  0.0000)
   5 Rh     8.145870    3.135347    6.000000    ( 0.0000,  0.0000,  0.0000)
   6 Rh     4.072935    5.486857    6.000000    ( 0.0000,  0.0000,  0.0000)
   7 Rh     6.788225    5.486857    6.000000    ( 0.0000,  0.0000,  0.0000)
   8 Rh     9.503515    5.486857    6.000000    ( 0.0000,  0.0000,  0.0000)
   9 Rh    -0.000000    1.567673    8.217025    ( 0.0000,  0.0000,  0.0000)
  10 Rh     2.715290    1.567673    8.217025    ( 0.0000,  0.0000,  0.0000)
  11 Rh     5.430580    1.567673    8.217025    ( 0.0000,  0.0000,  0.0000)
  12 Rh     1.357645    3.919184    8.217025    ( 0.0000,  0.0000,  0.0000)
  13 Rh     4.072935    3.919184    8.217025    ( 0.0000,  0.0000,  0.0000)
  14 Rh     6.788225    3.919184    8.217025    ( 0.0000,  0.0000,  0.0000)
  15 Rh     2.715290    6.270694    8.217025    ( 0.0000,  0.0000,  0.0000)
  16 Rh     5.430580    6.270694    8.217025    ( 0.0000,  0.0000,  0.0000)
  17 Rh     8.145870    6.270694    8.217025    ( 0.0000,  0.0000,  0.0000)
  18 Rh     0.000000    0.000000   10.434050    ( 0.0000,  0.0000,  0.0000)
  19 Rh     2.715290    0.000000   10.434050    ( 0.0000,  0.0000,  0.0000)
  20 Rh     5.430580    0.000000   10.434050    ( 0.0000,  0.0000,  0.0000)
  21 Rh     1.357645    2.351510   10.434050    ( 0.0000,  0.0000,  0.0000)
  22 Rh     4.072935    2.351510   10.434050    ( 0.0000,  0.0000,  0.0000)
  23 Rh     6.788225    2.351510   10.434050    ( 0.0000,  0.0000,  0.0000)
  24 Rh     2.715290    4.703020   10.434050    ( 0.0000,  0.0000,  0.0000)
  25 Rh     5.430580    4.703020   10.434050    ( 0.0000,  0.0000,  0.0000)
  26 Rh     8.145870    4.703020   10.434050    ( 0.0000,  0.0000,  0.0000)
  27 O      1.357645    0.783837   13.584390    ( 0.0000,  0.0000,  0.0000)
  28 C      1.259040    0.726907   12.405633    ( 0.0000,  0.0000,  0.0000)

Unit cell:
           periodic     x           y           z      points  spacing
  1. axis:    yes    8.145870    0.000000    0.000000    40     0.1764
  2. axis:    yes    4.072935    7.054530    0.000000    40     0.1764
  3. axis:    no     0.000000    0.000000   16.434050    81     0.2029

  Lengths:   8.145870   8.145870  16.434050
  Angles:   90.000000  90.000000  60.000000

Effective grid spacing dv^(1/3) = 0.1939

     iter     time        total  log10-change:
                         energy  eigst   dens
iter:   1 15:41:00  -197.803622  -2.52
iter:   2 15:41:07  -197.817976  -3.75  -2.92
iter:   3 15:41:13  -197.795232c -4.30  -2.70
iter:   4 15:41:20  -197.782351c -5.05  -2.91
iter:   5 15:41:27  -197.780632c -5.30  -3.37
iter:   6 15:41:33  -197.779112c -5.05  -3.49
iter:   7 15:41:40  -197.778970c -5.58  -3.68
iter:   8 15:41:47  -197.778887c -5.95  -3.77
iter:   9 15:41:53  -197.779323c -5.99  -3.85
iter:  10 15:42:00  -197.778945c -6.28  -3.55
iter:  11 15:42:07  -197.778762c -6.84  -3.93
iter:  12 15:42:14  -197.778750c -6.35  -4.13c
iter:  13 15:42:20  -197.778729c -6.84  -4.39c
iter:  14 15:42:27  -197.778735c -7.53c -4.45c

Converged after 14 iterations.

Dipole moment: (-6.376673, -3.681574, -0.163009) |e|*Ang

Energy contributions relative to reference atoms: (reference = -3516703.949422)

Kinetic:       -182.113002
Potential:      +97.787950
External:        +0.000000
XC:            -110.415955
Entropy (-ST):   -1.727512
Local:           -2.173972
--------------------------
Free energy:   -198.642491
Extrapolated:  -197.778735

Showing only first 2 kpts
 Kpt  Band  Eigenvalues  Occupancy
  0   205      1.65746    1.35103
  0   206      1.72847    1.01160
  0   207      1.73366    0.98565
  0   208      1.75928    0.85847

  1   205      1.63033    1.46392
  1   206      1.64037    1.42360
  1   207      1.71048    1.10116
  1   208      1.73487    0.97959


Fermi level: 1.73079

No gap

Forces in eV/Ang:
  0 Rh   -0.00253   -0.00146    0.44602
  1 Rh    0.01129   -0.04733    0.41837
  2 Rh   -0.00248   -0.02870    0.42670
  3 Rh   -0.03535    0.03345    0.41837
  4 Rh    0.00460    0.00266    0.45960
  5 Rh    0.02678    0.03631    0.40489
  6 Rh   -0.02610    0.01220    0.42670
  7 Rh    0.04484    0.00504    0.40489
  8 Rh   -0.00866   -0.00500    0.29524
  9 Rh   -0.01497   -0.00325   -0.17151
 10 Rh    0.01397    0.00806   -0.13377
 11 Rh    0.00617    0.00541    0.03911
 12 Rh   -0.00151   -0.04861    0.09520
 13 Rh    0.00777    0.00264    0.03911
 14 Rh   -0.01373   -0.00793    0.04716
 15 Rh    0.09798    0.05657    0.19284
 16 Rh   -0.01030   -0.01133   -0.17151
 17 Rh   -0.04285    0.02300    0.09520
 18 Rh    0.26669    0.15397    0.74585
 19 Rh   -0.05411    0.07758    0.33688
 20 Rh   -0.04895    0.00713   -0.50370
 21 Rh    0.04013   -0.08565    0.33688
 22 Rh    0.11469    0.06622   -0.47736
 23 Rh   -0.17540    0.10927   -0.51591
 24 Rh   -0.01830   -0.04595   -0.50370
 25 Rh    0.00693   -0.20653   -0.51591
 26 Rh    0.00232    0.00134   -0.48597
 27 O    -0.20512   -0.11842   -2.15589
 28 C     0.02064    0.01191   -0.01423

System changes: positions 

Initializing position-dependent things.

Density initialized from wave functions
                                           
                                           
                                           
                                           
                                           
                                           
                                           
           O                               
             C  Rh     Rh     Rh           
                                           
            Rh   RRh    RRh    Rh          
       Rh    RRh   RRh    Rh               
                                           
        Rh     Rh   RRh    Rh    Rh        
                                           
                Rh    Rh     Rh            
           Rh    Rh     Rh                 
                                           
                                           
                                           
                                           

Positions:
   0 Rh     1.357645    0.783837    6.000000    ( 0.0000,  0.0000,  0.0000)
   1 Rh     4.072935    0.783837    6.000000    ( 0.0000,  0.0000,  0.0000)
   2 Rh     6.788225    0.783837    6.000000    ( 0.0000,  0.0000,  0.0000)
   3 Rh     2.715290    3.135347    6.000000    ( 0.0000,  0.0000,  0.0000)
   4 Rh     5.430580    3.135347    6.000000    ( 0.0000,  0.0000,  0.0000)
   5 Rh     8.145870    3.135347    6.000000    ( 0.0000,  0.0000,  0.0000)
   6 Rh     4.072935    5.486857    6.000000    ( 0.0000,  0.0000,  0.0000)
   7 Rh     6.788225    5.486857    6.000000    ( 0.0000,  0.0000,  0.0000)
   8 Rh     9.503515    5.486857    6.000000    ( 0.0000,  0.0000,  0.0000)
   9 Rh    -0.000000    1.567673    8.217025    ( 0.0000,  0.0000,  0.0000)
  10 Rh     2.715290    1.567673    8.217025    ( 0.0000,  0.0000,  0.0000)
  11 Rh     5.430580    1.567673    8.217025    ( 0.0000,  0.0000,  0.0000)
  12 Rh     1.357645    3.919184    8.217025    ( 0.0000,  0.0000,  0.0000)
  13 Rh     4.072935    3.919184    8.217025    ( 0.0000,  0.0000,  0.0000)
  14 Rh     6.788225    3.919184    8.217025    ( 0.0000,  0.0000,  0.0000)
  15 Rh     2.715290    6.270694    8.217025    ( 0.0000,  0.0000,  0.0000)
  16 Rh     5.430580    6.270694    8.217025    ( 0.0000,  0.0000,  0.0000)
  17 Rh     8.145870    6.270694    8.217025    ( 0.0000,  0.0000,  0.0000)
  18 Rh     0.000000    0.000000   10.434050    ( 0.0000,  0.0000,  0.0000)
  19 Rh     2.715290    0.000000   10.434050    ( 0.0000,  0.0000,  0.0000)
  20 Rh     5.430580    0.000000   10.434050    ( 0.0000,  0.0000,  0.0000)
  21 Rh     1.357645    2.351510   10.434050    ( 0.0000,  0.0000,  0.0000)
  22 Rh     4.072935    2.351510   10.434050    ( 0.0000,  0.0000,  0.0000)
  23 Rh     6.788225    2.351510   10.434050    ( 0.0000,  0.0000,  0.0000)
  24 Rh     2.715290    4.703020   10.434050    ( 0.0000,  0.0000,  0.0000)
  25 Rh     5.430580    4.703020   10.434050    ( 0.0000,  0.0000,  0.0000)
  26 Rh     8.145870    4.703020   10.434050    ( 0.0000,  0.0000,  0.0000)
  27 O      1.357645    0.783837   13.584390    ( 0.0000,  0.0000,  0.0000)
  28 C      1.981886    1.144242   12.355272    ( 0.0000,  0.0000,  0.0000)

Unit cell:
           periodic     x           y           z      points  spacing
  1. axis:    yes    8.145870    0.000000    0.000000    40     0.1764
  2. axis:    yes    4.072935    7.054530    0.000000    40     0.1764
  3. axis:    no     0.000000    0.000000   16.434050    81     0.2029

  Lengths:   8.145870   8.145870  16.434050
  Angles:   90.000000  90.000000  60.000000

Effective grid spacing dv^(1/3) = 0.1939

     iter     time        total  log10-change:
                         energy  eigst   dens
iter:   1 15:42:36  -229.714177  -0.17
iter:   2 15:42:43  -258.798416  -0.89  -1.39
iter:   3 15:42:49  -206.484872  -1.30  -1.17
iter:   4 15:42:56  -198.876574  -1.67  -1.67
iter:   5 15:43:03  -198.454709  -2.48  -1.94
iter:   6 15:43:09  -197.483222  -2.49  -2.00
iter:   7 15:43:16  -196.988774  -2.08  -2.16
iter:   8 15:43:23  -196.522745  -3.23  -2.06
iter:   9 15:43:30  -196.478599  -3.47  -2.38
iter:  10 15:43:36  -196.196992  -3.03  -2.29
iter:  11 15:43:43  -196.117288  -3.01  -2.52
iter:  12 15:43:50  -196.094928c -3.61  -2.73
iter:  13 15:43:56  -196.088504c -4.43  -2.88
iter:  14 15:44:03  -196.087380c -5.09  -3.01
iter:  15 15:44:10  -196.090837c -5.01  -3.04
iter:  16 15:44:16  -196.085014c -4.36  -2.97
iter:  17 15:44:23  -196.084911c -4.92  -3.33
iter:  18 15:44:30  -196.084864c -5.69  -3.37
iter:  19 15:44:37  -196.084122c -5.30  -3.43
iter:  20 15:44:43  -196.083725c -5.40  -3.54
iter:  21 15:44:50  -196.084075c -5.93  -3.75
iter:  22 15:44:57  -196.083812c -6.07  -3.60
iter:  23 15:45:03  -196.083843c -6.68  -3.96
iter:  24 15:45:10  -196.083834c -6.64  -4.05c
iter:  25 15:45:17  -196.083867c -6.58  -4.25c
iter:  26 15:45:24  -196.083849c -7.26  -4.31c
iter:  27 15:45:30  -196.083861c -7.83c -4.48c

Converged after 27 iterations.

Dipole moment: (-3.160616, -1.824782, -0.627748) |e|*Ang

Energy contributions relative to reference atoms: (reference = -3516703.949422)

Kinetic:       -198.222503
Potential:     +111.672067
External:        +0.000000
XC:            -106.514142
Entropy (-ST):   -1.701487
Local:           -2.168539
--------------------------
Free energy:   -196.934604
Extrapolated:  -196.083861

Showing only first 2 kpts
 Kpt  Band  Eigenvalues  Occupancy
  0   205      1.48971    1.31588
  0   206      1.54613    1.04493
  0   207      1.58064    0.87310
  0   208      1.59293    0.81318

  1   205      1.44767    1.49089
  1   206      1.47462    1.38208
  1   207      1.52706    1.13940
  1   208      1.55385    1.00632


Fermi level: 1.55512

No gap

Forces in eV/Ang:
  0 Rh    0.02152    0.01242    0.45537
  1 Rh   -0.00034   -0.01165    0.42306
  2 Rh   -0.03396   -0.07568    0.36472
  3 Rh   -0.01026    0.00553    0.42306
  4 Rh   -0.02460   -0.01420    0.45039
  5 Rh    0.03465   -0.00281    0.46058
  6 Rh   -0.08252    0.00843    0.36472
  7 Rh    0.01489    0.03141    0.46058
  8 Rh    0.10428    0.06021    0.26235
  9 Rh    0.02463    0.07027   -0.03075
 10 Rh   -0.00530   -0.00306   -0.23769
 11 Rh   -0.00369    0.03245    0.06441
 12 Rh   -0.06306   -0.02917    0.01515
 13 Rh    0.02626   -0.01943    0.06441
 14 Rh    0.02596    0.01499    0.00908
 15 Rh   -0.00057   -0.00033    0.06562
 16 Rh    0.07317   -0.01380   -0.03075
 17 Rh   -0.05679   -0.04003    0.01515
 18 Rh   -0.19590   -0.11310   -0.39021
 19 Rh   -0.24791    0.52769    1.15632
 20 Rh    0.09789   -0.04266   -0.49682
 21 Rh    0.33304   -0.47854    1.15632
 22 Rh    0.19704    0.11376   -0.37405
 23 Rh   -0.09656    0.02713   -0.49137
 24 Rh    0.01200    0.10611   -0.49682
 25 Rh   -0.02479   -0.09719   -0.49137
 26 Rh   -0.01482   -0.00855   -0.51313
 27 O     4.60272    2.65738   -8.58437
 28 C    -4.71102   -2.71991    5.84146

System changes: positions 

Initializing position-dependent things.

Density initialized from wave functions
                                           
                                           
                                           
                                           
                                           
                                           
                                           
           O                               
           C    Rh     Rh     Rh           
                                           
            Rh   RRh    RRh    Rh          
       Rh    RRh   RRh    Rh               
                                           
        Rh     Rh   RRh    Rh    Rh        
                                           
                Rh    Rh     Rh            
           Rh    Rh     Rh                 
                                           
                                           
                                           
                                           

Positions:
   0 Rh     1.357645    0.783837    6.000000    ( 0.0000,  0.0000,  0.0000)
   1 Rh     4.072935    0.783837    6.000000    ( 0.0000,  0.0000,  0.0000)
   2 Rh     6.788225    0.783837    6.000000    ( 0.0000,  0.0000,  0.0000)
   3 Rh     2.715290    3.135347    6.000000    ( 0.0000,  0.0000,  0.0000)
   4 Rh     5.430580    3.135347    6.000000    ( 0.0000,  0.0000,  0.0000)
   5 Rh     8.145870    3.135347    6.000000    ( 0.0000,  0.0000,  0.0000)
   6 Rh     4.072935    5.486857    6.000000    ( 0.0000,  0.0000,  0.0000)
   7 Rh     6.788225    5.486857    6.000000    ( 0.0000,  0.0000,  0.0000)
   8 Rh     9.503515    5.486857    6.000000    ( 0.0000,  0.0000,  0.0000)
   9 Rh    -0.000000    1.567673    8.217025    ( 0.0000,  0.0000,  0.0000)
  10 Rh     2.715290    1.567673    8.217025    ( 0.0000,  0.0000,  0.0000)
  11 Rh     5.430580    1.567673    8.217025    ( 0.0000,  0.0000,  0.0000)
  12 Rh     1.357645    3.919184    8.217025    ( 0.0000,  0.0000,  0.0000)
  13 Rh     4.072935    3.919184    8.217025    ( 0.0000,  0.0000,  0.0000)
  14 Rh     6.788225    3.919184    8.217025    ( 0.0000,  0.0000,  0.0000)
  15 Rh     2.715290    6.270694    8.217025    ( 0.0000,  0.0000,  0.0000)
  16 Rh     5.430580    6.270694    8.217025    ( 0.0000,  0.0000,  0.0000)
[...]

  Lengths:   8.145870   8.145870  16.434050
  Angles:   90.000000  90.000000  60.000000

Effective grid spacing dv^(1/3) = 0.1939

     iter     time        total  log10-change:
                         energy  eigst   dens
iter:   1 15:49:31  -197.779696  -3.83
iter:   2 15:49:38  -197.779261  -5.13  -3.64
iter:   3 15:49:45  -197.779533c -5.75  -3.68
iter:   4 15:49:52  -197.778892c -6.20  -3.49
iter:   5 15:49:58  -197.778734c -6.51  -3.96
iter:   6 15:50:05  -197.778690c -6.27  -4.15c
iter:   7 15:50:12  -197.778682c -6.81  -4.26c
iter:   8 15:50:18  -197.778691c -7.02  -4.34c
iter:   9 15:50:25  -197.778708c -7.43c -4.52c

Converged after 9 iterations.

Dipole moment: (-6.125381, -3.536490, -0.165301) |e|*Ang

Energy contributions relative to reference atoms: (reference = -3516703.949422)

Kinetic:       -181.974841
Potential:      +97.673436
External:        +0.000000
XC:            -110.436312
Entropy (-ST):   -1.728512
Local:           -2.176735
--------------------------
Free energy:   -198.642964
Extrapolated:  -197.778708

Showing only first 2 kpts
 Kpt  Band  Eigenvalues  Occupancy
  0   205      1.65525    1.35730
  0   206      1.72680    1.01607
  0   207      1.73255    0.98731
  0   208      1.75846    0.85869

  1   205      1.63105    1.45801
  1   206      1.63814    1.42955
  1   207      1.70957    1.10188
  1   208      1.73521    0.97403


Fermi level: 1.73001

No gap

Forces in eV/Ang:
  0 Rh   -0.00017   -0.00010    0.44577
  1 Rh    0.01175   -0.04541    0.41867
  2 Rh   -0.00382   -0.03187    0.42317
  3 Rh   -0.03345    0.03288    0.41867
  4 Rh    0.00224    0.00129    0.46079
  5 Rh    0.02792    0.03317    0.40996
  6 Rh   -0.02951    0.01262    0.42317
  7 Rh    0.04269    0.00759    0.40996
  8 Rh   -0.00234   -0.00135    0.29460
  9 Rh   -0.01383    0.00105   -0.17121
 10 Rh    0.01509    0.00871   -0.15016
 11 Rh    0.00309    0.00657    0.03812
 12 Rh   -0.00317   -0.05765    0.10721
 13 Rh    0.00723   -0.00061    0.03812
 14 Rh   -0.01071   -0.00619    0.04202
 15 Rh    0.08269    0.04774    0.16296
 16 Rh   -0.00601   -0.01250   -0.17121
 17 Rh   -0.05151    0.02608    0.10721
 18 Rh    0.21526    0.12428    0.63036
 19 Rh   -0.08164    0.08188    0.38530
 20 Rh   -0.02663    0.00588   -0.50505
 21 Rh    0.03009   -0.11164    0.38530
 22 Rh    0.13236    0.07642   -0.48969
 23 Rh   -0.17518    0.10166   -0.51906
 24 Rh   -0.00822   -0.02600   -0.50505
 25 Rh    0.00045   -0.20254   -0.51906
 26 Rh    0.00082    0.00048   -0.49724
 27 O    -0.10217   -0.05899   -2.14903
 28 C     0.04580    0.02644   -0.01082

System changes: positions 

Initializing position-dependent things.

Density initialized from wave functions
                                           
                                           
                                           
                                           
                                           
                                           
                                           
           O                               
           C    Rh     Rh     Rh           
                                           
            Rh   RRh    RRh    Rh          
       Rh    RRh   RRh    Rh               
                                           
        Rh     Rh   RRh    Rh    Rh        
                                           
                Rh    Rh     Rh            
           Rh    Rh     Rh                 
                                           
                                           
                                           
                                           

Positions:
   0 Rh     1.357645    0.783837    6.000000    ( 0.0000,  0.0000,  0.0000)
   1 Rh     4.072935    0.783837    6.000000    ( 0.0000,  0.0000,  0.0000)
   2 Rh     6.788225    0.783837    6.000000    ( 0.0000,  0.0000,  0.0000)
   3 Rh     2.715290    3.135347    6.000000    ( 0.0000,  0.0000,  0.0000)
   4 Rh     5.430580    3.135347    6.000000    ( 0.0000,  0.0000,  0.0000)
   5 Rh     8.145870    3.135347    6.000000    ( 0.0000,  0.0000,  0.0000)
   6 Rh     4.072935    5.486857    6.000000    ( 0.0000,  0.0000,  0.0000)
   7 Rh     6.788225    5.486857    6.000000    ( 0.0000,  0.0000,  0.0000)
   8 Rh     9.503515    5.486857    6.000000    ( 0.0000,  0.0000,  0.0000)
   9 Rh    -0.000000    1.567673    8.217025    ( 0.0000,  0.0000,  0.0000)
  10 Rh     2.715290    1.567673    8.217025    ( 0.0000,  0.0000,  0.0000)
  11 Rh     5.430580    1.567673    8.217025    ( 0.0000,  0.0000,  0.0000)
  12 Rh     1.357645    3.919184    8.217025    ( 0.0000,  0.0000,  0.0000)
  13 Rh     4.072935    3.919184    8.217025    ( 0.0000,  0.0000,  0.0000)
  14 Rh     6.788225    3.919184    8.217025    ( 0.0000,  0.0000,  0.0000)
  15 Rh     2.715290    6.270694    8.217025    ( 0.0000,  0.0000,  0.0000)
  16 Rh     5.430580    6.270694    8.217025    ( 0.0000,  0.0000,  0.0000)
  17 Rh     8.145870    6.270694    8.217025    ( 0.0000,  0.0000,  0.0000)
  18 Rh     0.000000    0.000000   10.434050    ( 0.0000,  0.0000,  0.0000)
  19 Rh     2.715290    0.000000   10.434050    ( 0.0000,  0.0000,  0.0000)
  20 Rh     5.430580    0.000000   10.434050    ( 0.0000,  0.0000,  0.0000)
  21 Rh     1.357645    2.351510   10.434050    ( 0.0000,  0.0000,  0.0000)
  22 Rh     4.072935    2.351510   10.434050    ( 0.0000,  0.0000,  0.0000)
  23 Rh     6.788225    2.351510   10.434050    ( 0.0000,  0.0000,  0.0000)
  24 Rh     2.715290    4.703020   10.434050    ( 0.0000,  0.0000,  0.0000)
  25 Rh     5.430580    4.703020   10.434050    ( 0.0000,  0.0000,  0.0000)
  26 Rh     8.145870    4.703020   10.434050    ( 0.0000,  0.0000,  0.0000)
  27 O      1.357645    0.783837   13.584390    ( 0.0000,  0.0000,  0.0000)
  28 C      1.325920    0.765520   12.400423    ( 0.0000,  0.0000,  0.0000)

Unit cell:
           periodic     x           y           z      points  spacing
  1. axis:    yes    8.145870    0.000000    0.000000    40     0.1764
  2. axis:    yes    4.072935    7.054530    0.000000    40     0.1764
  3. axis:    no     0.000000    0.000000   16.434050    81     0.2029

  Lengths:   8.145870   8.145870  16.434050
  Angles:   90.000000  90.000000  60.000000

Effective grid spacing dv^(1/3) = 0.1939

     iter     time        total  log10-change:
                         energy  eigst   dens
iter:   1 15:50:34  -197.813434  -3.24
iter:   2 15:50:41  -198.074037  -3.53  -2.75
iter:   3 15:50:47  -197.779446  -3.93  -2.30
iter:   4 15:50:54  -197.779170  -5.32  -3.59
iter:   5 15:51:01  -197.778966c -6.15  -3.76
iter:   6 15:51:07  -197.778730c -5.66  -3.88
iter:   7 15:51:14  -197.778665c -6.29  -4.02c
iter:   8 15:51:21  -197.778728c -7.05  -4.18c
iter:   9 15:51:28  -197.778646c -6.76  -4.06c
iter:  10 15:51:34  -197.778652c -6.89  -4.10c
iter:  11 15:51:41  -197.778641c -7.54c -4.57c

Converged after 11 iterations.

Dipole moment: (-5.933809, -3.425886, -0.168728) |e|*Ang

Energy contributions relative to reference atoms: (reference = -3516703.949422)

Kinetic:       -182.064322
Potential:      +97.756176
External:        +0.000000
XC:            -110.429760
Entropy (-ST):   -1.729073
Local:           -2.176199
--------------------------
Free energy:   -198.643177
Extrapolated:  -197.778641

Showing only first 2 kpts
 Kpt  Band  Eigenvalues  Occupancy
  0   205      1.65325    1.36092
  0   206      1.72518    1.01831
  0   207      1.73082    0.99012
  0   208      1.75709    0.85969

  1   205      1.63119    1.45281
  1   206      1.63589    1.43397
  1   207      1.70814    1.10312
  1   208      1.73467    0.97086


Fermi level: 1.72884

No gap

Forces in eV/Ang:
  0 Rh    0.00200    0.00115    0.44795
  1 Rh    0.01214   -0.04459    0.42033
  2 Rh   -0.00554   -0.03450    0.42344
  3 Rh   -0.03255    0.03281    0.42033
  4 Rh    0.00172    0.00100    0.46374
  5 Rh    0.02828    0.03131    0.41587
  6 Rh   -0.03265    0.01245    0.42344
  7 Rh    0.04125    0.00883    0.41587
  8 Rh    0.00355    0.00205    0.29667
  9 Rh   -0.01401    0.00124   -0.16551
 10 Rh    0.01393    0.00804   -0.15360
 11 Rh    0.00373    0.00705    0.04175
 12 Rh   -0.00477   -0.06072    0.11780
 13 Rh    0.00797   -0.00029    0.04175
 14 Rh   -0.00924   -0.00534    0.04227
 15 Rh    0.07527    0.04346    0.14833
 16 Rh   -0.00593   -0.01276   -0.16551
 17 Rh   -0.05497    0.02622    0.11780
 18 Rh    0.18079    0.10438    0.56319
 19 Rh   -0.10487    0.07565    0.43138
 20 Rh   -0.02423    0.00729   -0.49550
 21 Rh    0.01308   -0.12864    0.43138
 22 Rh    0.14535    0.08392   -0.49095
 23 Rh   -0.17170    0.09332   -0.50696
 24 Rh   -0.00580   -0.02462   -0.49550
 25 Rh   -0.00504   -0.19536   -0.50696
 26 Rh    0.00209    0.00121   -0.49373
 27 O    -0.08843   -0.05106   -2.16861
 28 C    -0.02933   -0.01693   -0.00853

System changes: positions 

Initializing position-dependent things.

Density initialized from wave functions
                                           
                                           
                                           
                                           
                                           
                                           
                                           
           O                               
           C    Rh     Rh     Rh           
                                           
            Rh   RRh    RRh    Rh          
       Rh    RRh   RRh    Rh               
                                           
        Rh     Rh   RRh    Rh    Rh        
                                           
                Rh    Rh     Rh            
           Rh    Rh     Rh                 
                                           
                                           
                                           
                                           

Positions:
   0 Rh     1.357645    0.783837    6.000000    ( 0.0000,  0.0000,  0.0000)
   1 Rh     4.072935    0.783837    6.000000    ( 0.0000,  0.0000,  0.0000)
   2 Rh     6.788225    0.783837    6.000000    ( 0.0000,  0.0000,  0.0000)
   3 Rh     2.715290    3.135347    6.000000    ( 0.0000,  0.0000,  0.0000)
   4 Rh     5.430580    3.135347    6.000000    ( 0.0000,  0.0000,  0.0000)
   5 Rh     8.145870    3.135347    6.000000    ( 0.0000,  0.0000,  0.0000)
   6 Rh     4.072935    5.486857    6.000000    ( 0.0000,  0.0000,  0.0000)
   7 Rh     6.788225    5.486857    6.000000    ( 0.0000,  0.0000,  0.0000)
   8 Rh     9.503515    5.486857    6.000000    ( 0.0000,  0.0000,  0.0000)
   9 Rh    -0.000000    1.567673    8.217025    ( 0.0000,  0.0000,  0.0000)
  10 Rh     2.715290    1.567673    8.217025    ( 0.0000,  0.0000,  0.0000)
  11 Rh     5.430580    1.567673    8.217025    ( 0.0000,  0.0000,  0.0000)
  12 Rh     1.357645    3.919184    8.217025    ( 0.0000,  0.0000,  0.0000)
  13 Rh     4.072935    3.919184    8.217025    ( 0.0000,  0.0000,  0.0000)
  14 Rh     6.788225    3.919184    8.217025    ( 0.0000,  0.0000,  0.0000)
  15 Rh     2.715290    6.270694    8.217025    ( 0.0000,  0.0000,  0.0000)
  16 Rh     5.430580    6.270694    8.217025    ( 0.0000,  0.0000,  0.0000)
  17 Rh     8.145870    6.270694    8.217025    ( 0.0000,  0.0000,  0.0000)
  18 Rh     0.000000    0.000000   10.434050    ( 0.0000,  0.0000,  0.0000)
  19 Rh     2.715290    0.000000   10.434050    ( 0.0000,  0.0000,  0.0000)
  20 Rh     5.430580    0.000000   10.434050    ( 0.0000,  0.0000,  0.0000)
  21 Rh     1.357645    2.351510   10.434050    ( 0.0000,  0.0000,  0.0000)
  22 Rh     4.072935    2.351510   10.434050    ( 0.0000,  0.0000,  0.0000)
  23 Rh     6.788225    2.351510   10.434050    ( 0.0000,  0.0000,  0.0000)
  24 Rh     2.715290    4.703020   10.434050    ( 0.0000,  0.0000,  0.0000)
  25 Rh     5.430580    4.703020   10.434050    ( 0.0000,  0.0000,  0.0000)
  26 Rh     8.145870    4.703020   10.434050    ( 0.0000,  0.0000,  0.0000)
  27 O      1.357645    0.783837   13.584390    ( 0.0000,  0.0000,  0.0000)
  28 C      1.307983    0.755165   12.401285    ( 0.0000,  0.0000,  0.0000)

Unit cell:
           periodic     x           y           z      points  spacing
  1. axis:    yes    8.145870    0.000000    0.000000    40     0.1764
  2. axis:    yes    4.072935    7.054530    0.000000    40     0.1764
  3. axis:    no     0.000000    0.000000   16.434050    81     0.2029

  Lengths:   8.145870   8.145870  16.434050
  Angles:   90.000000  90.000000  60.000000

Effective grid spacing dv^(1/3) = 0.1939

     iter     time        total  log10-change:
                         energy  eigst   dens
iter:   1 15:51:50  -197.782716  -3.70
iter:   2 15:51:57  -197.797024  -4.56  -3.25
iter:   3 15:52:03  -197.779265c -5.00  -2.88
iter:   4 15:52:10  -197.778866c -6.34  -3.65
iter:   5 15:52:17  -197.778759c -6.61  -3.98
iter:   6 15:52:23  -197.778676c -6.10  -4.08c
iter:   7 15:52:30  -197.778670c -6.72  -4.29c
iter:   8 15:52:37  -197.778692c -7.35  -4.38c
iter:   9 15:52:44  -197.778682c -7.03  -4.39c
iter:  10 15:52:50  -197.778675c -7.21  -4.03c
iter:  11 15:52:57  -197.778668c -8.19c -4.59c

Converged after 11 iterations.

Dipole moment: (-6.047484, -3.491516, -0.167626) |e|*Ang

Energy contributions relative to reference atoms: (reference = -3516703.949422)

Kinetic:       -182.000293
Potential:      +97.697470
External:        +0.000000
XC:            -110.435609
Entropy (-ST):   -1.728791
Local:           -2.175840
--------------------------
Free energy:   -198.643063
Extrapolated:  -197.778668

Showing only first 2 kpts
 Kpt  Band  Eigenvalues  Occupancy
  0   205      1.65417    1.35875
  0   206      1.72579    1.01737
  0   207      1.73153    0.98863
  0   208      1.75761    0.85921

  1   205      1.63084    1.45588
  1   206      1.63699    1.43120
  1   207      1.70870    1.10245
  1   208      1.73460    0.97333


Fermi level: 1.72926

No gap

Forces in eV/Ang:
  0 Rh    0.00044    0.00025    0.44708
  1 Rh    0.01221   -0.04452    0.42005
  2 Rh   -0.00450   -0.03307    0.42291
  3 Rh   -0.03246    0.03283    0.42005
  4 Rh    0.00173    0.00100    0.46221
  5 Rh    0.02751    0.03207    0.41300
  6 Rh   -0.03089    0.01264    0.42291
  7 Rh    0.04153    0.00779    0.41300
  8 Rh    0.00032    0.00018    0.29581
  9 Rh   -0.01332    0.00369   -0.16736
 10 Rh    0.01511    0.00872   -0.15361
 11 Rh    0.00220    0.00793    0.04020
 12 Rh   -0.00489   -0.05991    0.11276
 13 Rh    0.00797   -0.00206    0.04020
 14 Rh   -0.00946   -0.00546    0.04304
 15 Rh    0.07874    0.04546    0.15753
 16 Rh   -0.00346   -0.01338   -0.16736
 17 Rh   -0.05433    0.02572    0.11276
 18 Rh    0.19442    0.11225    0.60571
 19 Rh   -0.09473    0.07451    0.40275
 20 Rh   -0.01813    0.00456   -0.49991
 21 Rh    0.01716   -0.11929    0.40275
 22 Rh    0.14430    0.08331   -0.49340
 23 Rh   -0.17158    0.09874   -0.51144
 24 Rh   -0.00511   -0.01798   -0.49991
 25 Rh   -0.00028   -0.19796   -0.51144
 26 Rh   -0.00171   -0.00099   -0.49461
 27 O    -0.08244   -0.04760   -2.15097
 28 C     0.03893    0.02248    0.00074

System changes: positions 

Initializing position-dependent things.

Density initialized from wave functions
                                           
                                           
                                           
                                           
                                           
                                           
                                           
           O                               
           C    Rh     Rh     Rh           
                                           
            Rh   RRh    RRh    Rh          
       Rh    RRh   RRh    Rh               
                                           
        Rh     Rh   RRh    Rh    Rh        
                                           
                Rh    Rh     Rh            
           Rh    Rh     Rh                 
                                           
                                           
                                           
                                           

Positions:
   0 Rh     1.357645    0.783837    6.000000    ( 0.0000,  0.0000,  0.0000)
   1 Rh     4.072935    0.783837    6.000000    ( 0.0000,  0.0000,  0.0000)
   2 Rh     6.788225    0.783837    6.000000    ( 0.0000,  0.0000,  0.0000)
   3 Rh     2.715290    3.135347    6.000000    ( 0.0000,  0.0000,  0.0000)
   4 Rh     5.430580    3.135347    6.000000    ( 0.0000,  0.0000,  0.0000)
   5 Rh     8.145870    3.135347    6.000000    ( 0.0000,  0.0000,  0.0000)
   6 Rh     4.072935    5.486857    6.000000    ( 0.0000,  0.0000,  0.0000)
   7 Rh     6.788225    5.486857    6.000000    ( 0.0000,  0.0000,  0.0000)
   8 Rh     9.503515    5.486857    6.000000    ( 0.0000,  0.0000,  0.0000)
   9 Rh    -0.000000    1.567673    8.217025    ( 0.0000,  0.0000,  0.0000)
  10 Rh     2.715290    1.567673    8.217025    ( 0.0000,  0.0000,  0.0000)
  11 Rh     5.430580    1.567673    8.217025    ( 0.0000,  0.0000,  0.0000)
  12 Rh     1.357645    3.919184    8.217025    ( 0.0000,  0.0000,  0.0000)
  13 Rh     4.072935    3.919184    8.217025    ( 0.0000,  0.0000,  0.0000)
  14 Rh     6.788225    3.919184    8.217025    ( 0.0000,  0.0000,  0.0000)
  15 Rh     2.715290    6.270694    8.217025    ( 0.0000,  0.0000,  0.0000)
  16 Rh     5.430580    6.270694    8.217025    ( 0.0000,  0.0000,  0.0000)
  17 Rh     8.145870    6.270694    8.217025    ( 0.0000,  0.0000,  0.0000)
  18 Rh     0.000000    0.000000   10.434050    ( 0.0000,  0.0000,  0.0000)
  19 Rh     2.715290    0.000000   10.434050    ( 0.0000,  0.0000,  0.0000)
  20 Rh     5.430580    0.000000   10.434050    ( 0.0000,  0.0000,  0.0000)
  21 Rh     1.357645    2.351510   10.434050    ( 0.0000,  0.0000,  0.0000)
  22 Rh     4.072935    2.351510   10.434050    ( 0.0000,  0.0000,  0.0000)
  23 Rh     6.788225    2.351510   10.434050    ( 0.0000,  0.0000,  0.0000)
  24 Rh     2.715290    4.703020   10.434050    ( 0.0000,  0.0000,  0.0000)
  25 Rh     5.430580    4.703020   10.434050    ( 0.0000,  0.0000,  0.0000)
  26 Rh     8.145870    4.703020   10.434050    ( 0.0000,  0.0000,  0.0000)
  27 O      1.357645    0.783837   13.584390    ( 0.0000,  0.0000,  0.0000)
  28 C      1.323923    0.764367   12.400483    ( 0.0000,  0.0000,  0.0000)

Unit cell:
           periodic     x           y           z      points  spacing
  1. axis:    yes    8.145870    0.000000    0.000000    40     0.1764
  2. axis:    yes    4.072935    7.054530    0.000000    40     0.1764
  3. axis:    no     0.000000    0.000000   16.434050    81     0.2029

  Lengths:   8.145870   8.145870  16.434050
  Angles:   90.000000  90.000000  60.000000

Effective grid spacing dv^(1/3) = 0.1939

     iter     time        total  log10-change:
                         energy  eigst   dens
iter:   1 15:53:06  -197.779694  -3.83
iter:   2 15:53:13  -197.780428  -5.07  -3.57
iter:   3 15:53:19  -197.779458c -5.61  -3.41
iter:   4 15:53:26  -197.778801c -6.28  -3.50
iter:   5 15:53:33  -197.778734c -6.74  -4.05c
iter:   6 15:53:39  -197.778652c -6.38  -4.14c
iter:   7 15:53:46  -197.778649c -6.92  -4.36c
iter:   8 15:53:53  -197.778641c -7.44c -4.45c

Converged after 8 iterations.

Dipole moment: (-5.948271, -3.434236, -0.168855) |e|*Ang

Energy contributions relative to reference atoms: (reference = -3516703.949422)

Kinetic:       -181.972941
Potential:      +97.673873
External:        +0.000000
XC:            -110.438808
Entropy (-ST):   -1.729057
Local:           -2.176236
--------------------------
Free energy:   -198.643169
Extrapolated:  -197.778641

Showing only first 2 kpts
 Kpt  Band  Eigenvalues  Occupancy
  0   205      1.65338    1.36065
  0   206      1.72526    1.01825
  0   207      1.73085    0.99032
  0   208      1.75714    0.85976

  1   205      1.63118    1.45315
  1   206      1.63607    1.43350
  1   207      1.70821    1.10314
  1   208      1.73465    0.97133


Fermi level: 1.72891

No gap
