
  ___ ___ ___ _ _ _  
 |   |   |_  | | | | 
 | | | | | . | | | | 
 |__ |  _|___|_____|  22.8.0
 |___|_|             

User:   gotols@vera44-4
Date:   Wed Feb 22 20:19:04 2023
Arch:   x86_64
Pid:    442647
CWD:    /cephyr/users/gotols/Vera/TIF320-Computational-materials-and-molecular-physics-Assignments
Python: 3.10.4
gpaw:   /apps/Arch/software/GPAW/22.8.0-foss-2022a/lib/python3.10/site-packages/gpaw
_gpaw:  /apps/Arch/software/GPAW/22.8.0-foss-2022a/lib/python3.10/site-packages/
        _gpaw.cpython-310-x86_64-linux-gnu.so
ase:    /apps/Arch/software/ASE/3.22.1-foss-2022a/lib/python3.10/site-packages/ase (version 3.22.1)
numpy:  /apps/Arch/software/SciPy-bundle/2022.05-foss-2022a/lib/python3.10/site-packages/numpy (version 1.22.3)
scipy:  /apps/Arch/software/SciPy-bundle/2022.05-foss-2022a/lib/python3.10/site-packages/scipy (version 1.8.1)
libxc:  5.2.3
units:  Angstrom and eV
cores: 16
OpenMP: False
OMP_NUM_THREADS: 1

Input parameters:
  kpts: [4 4 1]
  mode: {ecut: 450.00000000000006,
         name: pw}
  xc: PBE

System changes: positions, numbers, cell, pbc, initial_charges, initial_magmoms 

Initialize ...

species:
  Rh:
    name: Rhodium
    id: 4e1d209aee696a641de1ffa1459b299f
    Z: 45.0
    valence: 15
    core: 30
    charge: 0.0
    file: /apps/Common/software/GPAW-setups/0.9.20000/Rh.PBE.gz
    compensation charges: {type: gauss,
                           rc: 0.38,
                           lmax: 2}
    cutoffs: {filter: 2.48,
              core: 2.35}
    valence states:
      #              energy  rcut
      - 5s(1.00)    -4.297   1.270
      - 4p(6.00)   -50.429   1.381
      - 5p(0.00)    -0.852   1.381
      - 4d(8.00)    -5.942   1.244
      -  s          22.915   1.270
      -  d          21.270   1.244
  
    # Using partial waves for Rh as LCAO basis

  O:
    name: Oxygen
    id: 32ecd46bf208036f09c70b0ec9a88b78
    Z: 8.0
    valence: 6
    core: 2
    charge: 0.0
    file: /apps/Common/software/GPAW-setups/0.9.20000/O.PBE.gz
    compensation charges: {type: gauss,
                           rc: 0.21,
                           lmax: 2}
    cutoffs: {filter: 1.17,
              core: 0.83}
    valence states:
      #              energy  rcut
      - 2s(2.00)   -23.961   0.688
      - 2p(4.00)    -9.029   0.598
      -  s           3.251   0.688
      -  p          18.182   0.598
      -  d           0.000   0.619
  
    # Using partial waves for O as LCAO basis

  C:
    name: Carbon
    id: 4aa54d4b901d75f77cc0ea3eec22967b
    Z: 6.0
    valence: 4
    core: 2
    charge: 0.0
    file: /apps/Common/software/GPAW-setups/0.9.20000/C.PBE.gz
    compensation charges: {type: gauss,
                           rc: 0.20,
                           lmax: 2}
    cutoffs: {filter: 1.14,
              core: 1.14}
    valence states:
      #              energy  rcut
      - 2s(2.00)   -13.751   0.635
      - 2p(2.00)    -5.284   0.635
      -  s          13.461   0.635
      -  p          21.927   0.635
      -  d           0.000   0.635
  
    # Using partial waves for C as LCAO basis

Reference energy: -3516703.949422  # eV

Spin-paired calculation

Convergence criteria:
 Maximum [total energy] change in last 3 cyles: 0.0005 eV / electron
 Maximum integral of absolute [dens]ity change: 0.0001 electrons / valence electron
 Maximum integral of absolute [eigenst]ate change: 4e-08 eV^2 / valence electron
 Maximum number of scf [iter]ations: 333
 (Square brackets indicate name in SCF output, whereas a 'c' in
 the SCF output indicates the quantity has converged.)

Symmetries present (total): 1

  ( 1  0  0)
  ( 0  1  0)
  ( 0  0  1)

16 k-points: 4 x 4 x 1 Monkhorst-Pack grid
8 k-points in the irreducible part of the Brillouin zone
       k-points in crystal coordinates                weights
   0:     0.12500000   -0.37500000    0.00000000          2/16
   1:     0.12500000   -0.12500000    0.00000000          2/16
   2:     0.12500000    0.12500000    0.00000000          2/16
   3:     0.12500000    0.37500000    0.00000000          2/16
   4:     0.37500000   -0.37500000    0.00000000          2/16
   5:     0.37500000   -0.12500000    0.00000000          2/16
   6:     0.37500000    0.12500000    0.00000000          2/16
   7:     0.37500000    0.37500000    0.00000000          2/16

Wave functions: Plane wave expansion
  Cutoff energy: 450.000 eV
  Number of coefficients (min, max): 20454, 20528
  Pulay-stress correction: 0.000000 eV/Ang^3 (de/decut=0.000000)
  Using FFTW library
  ScaLapack parameters: grid=1x1, blocksize=None
  Wavefunction extrapolation:
    Improved wavefunction reuse through dual PAW basis 

Occupation numbers: Fermi-Dirac:
  width: 0.1000  # eV
 

Eigensolver
   Davidson(niter=2) 

Densities:
  Coarse grid: 40*40*81 grid
  Fine grid: 80*80*162 grid
  Total Charge: 0.000000 

Density mixing:
  Method: separate
  Backend: pulay
  Linear mixing parameter: 0.05
  old densities: 5
  Damping of long wavelength oscillations: 50 

Hamiltonian:
  XC and Coulomb potentials evaluated on a 80*80*162 grid
  Using the PBE Exchange-Correlation functional
  External potential:
    NoExternalPotential
 

XC parameters: PBE with 2 nearest neighbor stencil

Memory estimate:
  Process memory now: 885.53 MiB
  Calculator: 220.99 MiB
    Density: 34.22 MiB
      Arrays: 12.87 MiB
      Localized functions: 16.35 MiB
      Mixer: 5.00 MiB
    Hamiltonian: 8.85 MiB
      Arrays: 8.41 MiB
      XC: 0.00 MiB
      Poisson: 0.00 MiB
      vbar: 0.44 MiB
    Wavefunctions: 177.92 MiB
      Arrays psit_nG: 79.25 MiB
      Eigensolver: 90.59 MiB
      Projections: 0.99 MiB
      Projectors: 1.96 MiB
      PW-descriptor: 5.14 MiB

Total number of cores used: 16
Parallelization over k-points: 8
Domain decomposition: 1 x 1 x 2

Number of atoms: 29
Number of atomic orbitals: 332
Number of bands in calculation: 253
Number of valence electrons: 415
Bands to converge: occupied

... initialized

Initializing position-dependent things.

Density initialized from atomic densities
Creating initial wave functions:
  253 bands from LCAO basis set

                                           
                                           
                                           
                                           
                                           
                                           
                                           
          O                                
                Rh     Rh     Rh           
          C                                
            Rh   RRh    RRh    Rh          
       Rh    RRh   RRh    Rh               
                                           
        Rh     Rh   RRh    Rh    Rh        
                                           
                Rh    Rh     Rh            
           Rh    Rh     Rh                 
                                           
                                           
                                           
                                           

Positions:
   0 Rh     1.357645    0.783837    6.000000    ( 0.0000,  0.0000,  0.0000)
   1 Rh     4.072935    0.783837    6.000000    ( 0.0000,  0.0000,  0.0000)
   2 Rh     6.788225    0.783837    6.000000    ( 0.0000,  0.0000,  0.0000)
   3 Rh     2.715290    3.135347    6.000000    ( 0.0000,  0.0000,  0.0000)
   4 Rh     5.430580    3.135347    6.000000    ( 0.0000,  0.0000,  0.0000)
   5 Rh     8.145870    3.135347    6.000000    ( 0.0000,  0.0000,  0.0000)
   6 Rh     4.072935    5.486857    6.000000    ( 0.0000,  0.0000,  0.0000)
   7 Rh     6.788225    5.486857    6.000000    ( 0.0000,  0.0000,  0.0000)
   8 Rh     9.503515    5.486857    6.000000    ( 0.0000,  0.0000,  0.0000)
   9 Rh    -0.000000    1.567673    8.217025    ( 0.0000,  0.0000,  0.0000)
  10 Rh     2.715290    1.567673    8.217025    ( 0.0000,  0.0000,  0.0000)
  11 Rh     5.430580    1.567673    8.217025    ( 0.0000,  0.0000,  0.0000)
  12 Rh     1.357645    3.919184    8.217025    ( 0.0000,  0.0000,  0.0000)
  13 Rh     4.072935    3.919184    8.217025    ( 0.0000,  0.0000,  0.0000)
  14 Rh     6.788225    3.919184    8.217025    ( 0.0000,  0.0000,  0.0000)
  15 Rh     2.715290    6.270694    8.217025    ( 0.0000,  0.0000,  0.0000)
  16 Rh     5.430580    6.270694    8.217025    ( 0.0000,  0.0000,  0.0000)
  17 Rh     8.145870    6.270694    8.217025    ( 0.0000,  0.0000,  0.0000)
  18 Rh     0.000000    0.000000   10.434050    ( 0.0000,  0.0000,  0.0000)
  19 Rh     2.715290    0.000000   10.434050    ( 0.0000,  0.0000,  0.0000)
  20 Rh     5.430580    0.000000   10.434050    ( 0.0000,  0.0000,  0.0000)
  21 Rh     1.357645    2.351510   10.434050    ( 0.0000,  0.0000,  0.0000)
  22 Rh     4.072935    2.351510   10.434050    ( 0.0000,  0.0000,  0.0000)
  23 Rh     6.788225    2.351510   10.434050    ( 0.0000,  0.0000,  0.0000)
  24 Rh     2.715290    4.703020   10.434050    ( 0.0000,  0.0000,  0.0000)
  25 Rh     5.430580    4.703020   10.434050    ( 0.0000,  0.0000,  0.0000)
  26 Rh     8.145870    4.703020   10.434050    ( 0.0000,  0.0000,  0.0000)
  27 O      1.357645    0.000000   13.584390    ( 0.0000,  0.0000,  0.0000)
  28 C      1.357645    0.000000   12.434050    ( 0.0000,  0.0000,  0.0000)

Unit cell:
           periodic     x           y           z      points  spacing
  1. axis:    yes    8.145870    0.000000    0.000000    40     0.1764
  2. axis:    yes    4.072935    7.054530    0.000000    40     0.1764
  3. axis:    no     0.000000    0.000000   16.434050    81     0.2029

  Lengths:   8.145870   8.145870  16.434050
  Angles:   90.000000  90.000000  60.000000

Effective grid spacing dv^(1/3) = 0.1939

     iter     time        total  log10-change:
                         energy  eigst   dens
iter:   1 20:19:28  -211.600296
iter:   2 20:19:35  -209.096480  -1.32  -1.35
iter:   3 20:19:42  -209.891825  -1.52  -1.37
iter:   4 20:19:50  -200.578596  -1.21  -1.37
iter:   5 20:19:57  -198.323161  -2.19  -1.67
iter:   6 20:20:04  -198.227497  -2.34  -1.93
iter:   7 20:20:11  -198.074568  -2.60  -2.09
iter:   8 20:20:19  -198.035075c -3.18  -2.18
iter:   9 20:20:26  -197.944126c -3.15  -2.24
iter:  10 20:20:33  -197.987277c -3.27  -2.36
iter:  11 20:20:40  -197.903853c -3.17  -2.35
iter:  12 20:20:48  -197.886816c -3.83  -2.59
iter:  13 20:20:55  -197.881166c -3.85  -2.87
iter:  14 20:21:02  -197.880982c -4.83  -3.08
iter:  15 20:21:09  -197.881244c -4.45  -3.13
iter:  16 20:21:17  -197.880614c -5.03  -3.34
iter:  17 20:21:24  -197.880315c -5.15  -3.52
iter:  18 20:21:31  -197.881077c -5.42  -3.49
iter:  19 20:21:38  -197.880322c -5.88  -3.50
iter:  20 20:21:46  -197.880520c -5.83  -3.66
iter:  21 20:21:53  -197.880622c -6.14  -3.80
iter:  22 20:22:00  -197.880582c -6.56  -3.83
iter:  23 20:22:07  -197.880547c -6.67  -3.89
iter:  24 20:22:14  -197.880489c -6.24  -3.97
iter:  25 20:22:22  -197.880514c -6.63  -4.15c
iter:  26 20:22:29  -197.880447c -7.09  -4.19c
iter:  27 20:22:36  -197.880442c -7.66c -4.52c

Converged after 27 iterations.

Dipole moment: (-1.192179, -0.136880, -0.087120) |e|*Ang

Energy contributions relative to reference atoms: (reference = -3516703.949422)

Kinetic:       -178.821291
Potential:      +95.066094
External:        +0.000000
XC:            -111.136738
Entropy (-ST):   -1.710257
Local:           -2.133380
--------------------------
Free energy:   -198.735571
Extrapolated:  -197.880442

Showing only first 2 kpts
 Kpt  Band  Eigenvalues  Occupancy
  0   205      1.65342    1.48840
  0   206      1.70084    1.28845
  0   207      1.74432    1.07928
  0   208      1.83206    0.65544

  1   205      1.68271    1.36922
  1   206      1.75863    1.00790
  1   207      1.77879    0.90740
  1   208      1.78686    0.86756


Fermi level: 1.76021

No gap

Forces in eV/Ang:
  0 Rh    0.00216   -0.01676    0.46278
  1 Rh   -0.01311   -0.03226    0.46036
  2 Rh    0.01617   -0.03075    0.45740
  3 Rh   -0.03980    0.07156    0.37875
  4 Rh    0.00072    0.02084    0.46034
  5 Rh    0.04148    0.07069    0.37656
  6 Rh   -0.00698    0.00176    0.42625
  7 Rh    0.01127    0.00105    0.42035
  8 Rh    0.00815   -0.08062    0.30901
  9 Rh   -0.03199   -0.02747   -0.08084
 10 Rh    0.03470   -0.02760   -0.08878
 11 Rh    0.00244   -0.01337    0.01288
 12 Rh   -0.00387   -0.01231    0.06367
 13 Rh    0.01962   -0.01224    0.05169
 14 Rh   -0.01852   -0.01350    0.04934
 15 Rh    0.04992    0.08820    0.12557
 16 Rh   -0.00227    0.01457   -0.23329
 17 Rh   -0.05000    0.08358    0.12199
 18 Rh    0.36907   -0.05583    0.84424
 19 Rh   -0.37376   -0.04821    0.85321
 20 Rh   -0.00685    0.02210   -0.50901
 21 Rh    0.00446    0.30807   -0.47022
 22 Rh    0.06393    0.06281   -0.48393
 23 Rh   -0.06664    0.06035   -0.49434
 24 Rh   -0.07862   -0.07955   -0.48436
 25 Rh   -0.00771   -0.26958   -0.45694
 26 Rh    0.07789   -0.07582   -0.48335
 27 O     0.00293    0.00275    0.87852
 28 C    -0.00329   -0.01192   -2.95498

System changes: positions 

Initializing position-dependent things.

Density initialized from wave functions
                                           
                                           
                                           
                                           
                                           
                                           
                                           
          O                                
                Rh     Rh     Rh           
          C                                
            Rh   RRh    RRh    Rh          
       Rh    RRh   RRh    Rh               
                                           
        Rh     Rh   RRh    Rh    Rh        
                                           
                Rh    Rh     Rh            
           Rh    Rh     Rh                 
                                           
                                           
                                           
                                           

Positions:
   0 Rh     1.357645    0.783837    6.000000    ( 0.0000,  0.0000,  0.0000)
   1 Rh     4.072935    0.783837    6.000000    ( 0.0000,  0.0000,  0.0000)
   2 Rh     6.788225    0.783837    6.000000    ( 0.0000,  0.0000,  0.0000)
   3 Rh     2.715290    3.135347    6.000000    ( 0.0000,  0.0000,  0.0000)
   4 Rh     5.430580    3.135347    6.000000    ( 0.0000,  0.0000,  0.0000)
   5 Rh     8.145870    3.135347    6.000000    ( 0.0000,  0.0000,  0.0000)
   6 Rh     4.072935    5.486857    6.000000    ( 0.0000,  0.0000,  0.0000)
   7 Rh     6.788225    5.486857    6.000000    ( 0.0000,  0.0000,  0.0000)
   8 Rh     9.503515    5.486857    6.000000    ( 0.0000,  0.0000,  0.0000)
   9 Rh    -0.000000    1.567673    8.217025    ( 0.0000,  0.0000,  0.0000)
  10 Rh     2.715290    1.567673    8.217025    ( 0.0000,  0.0000,  0.0000)
  11 Rh     5.430580    1.567673    8.217025    ( 0.0000,  0.0000,  0.0000)
  12 Rh     1.357645    3.919184    8.217025    ( 0.0000,  0.0000,  0.0000)
  13 Rh     4.072935    3.919184    8.217025    ( 0.0000,  0.0000,  0.0000)
  14 Rh     6.788225    3.919184    8.217025    ( 0.0000,  0.0000,  0.0000)
  15 Rh     2.715290    6.270694    8.217025    ( 0.0000,  0.0000,  0.0000)
  16 Rh     5.430580    6.270694    8.217025    ( 0.0000,  0.0000,  0.0000)
  17 Rh     8.145870    6.270694    8.217025    ( 0.0000,  0.0000,  0.0000)
  18 Rh     0.000000    0.000000   10.434050    ( 0.0000,  0.0000,  0.0000)
  19 Rh     2.715290    0.000000   10.434050    ( 0.0000,  0.0000,  0.0000)
  20 Rh     5.430580    0.000000   10.434050    ( 0.0000,  0.0000,  0.0000)
  21 Rh     1.357645    2.351510   10.434050    ( 0.0000,  0.0000,  0.0000)
  22 Rh     4.072935    2.351510   10.434050    ( 0.0000,  0.0000,  0.0000)
  23 Rh     6.788225    2.351510   10.434050    ( 0.0000,  0.0000,  0.0000)
  24 Rh     2.715290    4.703020   10.434050    ( 0.0000,  0.0000,  0.0000)
  25 Rh     5.430580    4.703020   10.434050    ( 0.0000,  0.0000,  0.0000)
  26 Rh     8.145870    4.703020   10.434050    ( 0.0000,  0.0000,  0.0000)
  27 O      1.357645    0.000000   13.584390    ( 0.0000,  0.0000,  0.0000)
  28 C      1.357199   -0.001613   12.034054    ( 0.0000,  0.0000,  0.0000)

Unit cell:
           periodic     x           y           z      points  spacing
  1. axis:    yes    8.145870    0.000000    0.000000    40     0.1764
  2. axis:    yes    4.072935    7.054530    0.000000    40     0.1764
  3. axis:    no     0.000000    0.000000   16.434050    81     0.2029

  Lengths:   8.145870   8.145870  16.434050
  Angles:   90.000000  90.000000  60.000000

Effective grid spacing dv^(1/3) = 0.1939

     iter     time        total  log10-change:
                         energy  eigst   dens
iter:   1 20:22:48  -217.661632  -0.39
iter:   2 20:22:55  -230.900121  -1.24  -1.53
iter:   3 20:23:02  -209.451569  -1.44  -1.28
iter:   4 20:23:10  -200.350457  -1.73  -1.55
iter:   5 20:23:17  -196.941352  -2.23  -1.73
iter:   6 20:23:24  -196.692965  -2.82  -2.13
iter:   7 20:23:31  -196.257891  -2.23  -2.16
iter:   8 20:23:38  -196.145239  -3.24  -2.38
iter:   9 20:23:46  -196.256841c -3.43  -2.49
iter:  10 20:23:53  -196.063852c -3.34  -2.20
iter:  11 20:24:00  -195.855179  -3.10  -2.38
iter:  12 20:24:07  -195.852557  -4.19  -2.94
iter:  13 20:24:15  -195.851864c -5.22  -3.08
iter:  14 20:24:22  -195.852087c -5.16  -3.11
iter:  15 20:24:29  -195.853531c -5.06  -3.20
iter:  16 20:24:36  -195.861952c -4.86  -3.28
iter:  17 20:24:44  -195.854671c -5.08  -3.01
iter:  18 20:24:51  -195.854056c -6.09  -3.34
iter:  19 20:24:58  -195.853711c -5.45  -3.50
iter:  20 20:25:05  -195.853621c -5.88  -3.79
iter:  21 20:25:13  -195.853633c -6.42  -3.99
iter:  22 20:25:20  -195.853692c -6.97  -4.07c
iter:  23 20:25:27  -195.853707c -7.12  -4.11c
iter:  24 20:25:34  -195.853681c -6.73  -3.99
iter:  25 20:25:41  -195.853696c -6.58  -4.22c
iter:  26 20:25:49  -195.853670c -7.54c -4.43c

Converged after 26 iterations.

Dipole moment: (-0.577608, -0.058011, -0.916205) |e|*Ang

Energy contributions relative to reference atoms: (reference = -3516703.949422)

Kinetic:       -195.436767
Potential:     +109.695979
External:        +0.000000
XC:            -107.136493
Entropy (-ST):   -1.706656
Local:           -2.123060
--------------------------
Free energy:   -196.706998
Extrapolated:  -195.853670

Showing only first 2 kpts
 Kpt  Band  Eigenvalues  Occupancy
  0   205      1.32174    1.50300
  0   206      1.36954    1.30436
  0   207      1.44627    0.93078
  0   208      1.52254    0.57757

  1   205      1.38004    1.25601
  1   206      1.42890    1.01752
  1   207      1.45152    0.90470
  1   208      1.46292    0.84859


Fermi level: 1.43241

No gap

Forces in eV/Ang:
  0 Rh    0.00042    0.00641    0.43817
  1 Rh   -0.02248   -0.03740    0.46098
  2 Rh    0.02579   -0.03701    0.46105
  3 Rh   -0.04104    0.08707    0.36985
  4 Rh    0.00096    0.02392    0.46510
  5 Rh    0.04174    0.08516    0.36411
  6 Rh   -0.02896    0.00265    0.43938
  7 Rh    0.03224    0.00120    0.43286
  8 Rh    0.00690   -0.15462    0.19369
  9 Rh   -0.05469   -0.04120   -0.12734
 10 Rh    0.05732   -0.04262   -0.13742
 11 Rh    0.00328   -0.03318   -0.00292
 12 Rh   -0.00342    0.02043    0.11376
 13 Rh    0.01912    0.00384    0.04943
 14 Rh   -0.01807    0.00249    0.04700
 15 Rh   -0.05062    0.01790   -0.08094
 16 Rh   -0.00081   -0.02491   -0.37350
 17 Rh    0.05011    0.01188   -0.08065
 18 Rh    0.45846    0.04339    1.15519
 19 Rh   -0.46287    0.05780    1.16869
 20 Rh   -0.00922    0.02095   -0.50325
 21 Rh    0.00631    0.29114   -0.29408
 22 Rh    0.08479    0.08387   -0.49006
 23 Rh   -0.08641    0.08487   -0.50025
 24 Rh   -0.10175   -0.08460   -0.51584
 25 Rh   -0.00980   -0.28569   -0.26050
 26 Rh    0.10041   -0.07924   -0.51432
 27 O     0.00005   -0.01384   -9.43006
 28 C     0.00434   -0.00945    6.97764

System changes: positions 

Initializing position-dependent things.

Density initialized from wave functions
                                           
                                           
                                           
                                           
                                           
                                           
                                           
          O                                
                Rh     Rh     Rh           
          C                                
            Rh   RRh    RRh    Rh          
       Rh    RRh   RRh    Rh               
                                           
        Rh     Rh   RRh    Rh    Rh        
                                           
                Rh    Rh     Rh            
           Rh    Rh     Rh                 
                                           
                                           
                                           
                                           

Positions:
   0 Rh     1.357645    0.783837    6.000000    ( 0.0000,  0.0000,  0.0000)
   1 Rh     4.072935    0.783837    6.000000    ( 0.0000,  0.0000,  0.0000)
   2 Rh     6.788225    0.783837    6.000000    ( 0.0000,  0.0000,  0.0000)
   3 Rh     2.715290    3.135347    6.000000    ( 0.0000,  0.0000,  0.0000)
   4 Rh     5.430580    3.135347    6.000000    ( 0.0000,  0.0000,  0.0000)
   5 Rh     8.145870    3.135347    6.000000    ( 0.0000,  0.0000,  0.0000)
   6 Rh     4.072935    5.486857    6.000000    ( 0.0000,  0.0000,  0.0000)
   7 Rh     6.788225    5.486857    6.000000    ( 0.0000,  0.0000,  0.0000)
   8 Rh     9.503515    5.486857    6.000000    ( 0.0000,  0.0000,  0.0000)
   9 Rh    -0.000000    1.567673    8.217025    ( 0.0000,  0.0000,  0.0000)
  10 Rh     2.715290    1.567673    8.217025    ( 0.0000,  0.0000,  0.0000)
  11 Rh     5.430580    1.567673    8.217025    ( 0.0000,  0.0000,  0.0000)
  12 Rh     1.357645    3.919184    8.217025    ( 0.0000,  0.0000,  0.0000)
  13 Rh     4.072935    3.919184    8.217025    ( 0.0000,  0.0000,  0.0000)
  14 Rh     6.788225    3.919184    8.217025    ( 0.0000,  0.0000,  0.0000)
  15 Rh     2.715290    6.270694    8.217025    ( 0.0000,  0.0000,  0.0000)
  16 Rh     5.430580    6.270694    8.217025    ( 0.0000,  0.0000,  0.0000)
  17 Rh     8.145870    6.270694    8.217025    ( 0.0000,  0.0000,  0.0000)
  18 Rh     0.000000    0.000000   10.434050    ( 0.0000,  0.0000,  0.0000)
  19 Rh     2.715290    0.000000   10.434050    ( 0.0000,  0.0000,  0.0000)
  20 Rh     5.430580    0.000000   10.434050    ( 0.0000,  0.0000,  0.0000)
  21 Rh     1.357645    2.351510   10.434050    ( 0.0000,  0.0000,  0.0000)
  22 Rh     4.072935    2.351510   10.434050    ( 0.0000,  0.0000,  0.0000)
  23 Rh     6.788225    2.351510   10.434050    ( 0.0000,  0.0000,  0.0000)
  24 Rh     2.715290    4.703020   10.434050    ( 0.0000,  0.0000,  0.0000)
  25 Rh     5.430580    4.703020   10.434050    ( 0.0000,  0.0000,  0.0000)
  26 Rh     8.145870    4.703020   10.434050    ( 0.0000,  0.0000,  0.0000)
  27 O      1.357645    0.000000   13.584390    ( 0.0000,  0.0000,  0.0000)
  28 C      1.357570   -0.000385   12.380999    ( 0.0000,  0.0000,  0.0000)

Unit cell:
           periodic     x           y           z      points  spacing
  1. axis:    yes    8.145870    0.000000    0.000000    40     0.1764
  2. axis:    yes    4.072935    7.054530    0.000000    40     0.1764
  3. axis:    no     0.000000    0.000000   16.434050    81     0.2029

  Lengths:   8.145870   8.145870  16.434050
  Angles:   90.000000  90.000000  60.000000

Effective grid spacing dv^(1/3) = 0.1939

     iter     time        total  log10-change:
                         energy  eigst   dens
iter:   1 20:26:00  -203.016844  -1.35
iter:   2 20:26:08  -201.784392  -2.24  -1.91
iter:   3 20:26:15  -210.578689  -1.90  -1.83
iter:   4 20:26:22  -198.953400  -2.22  -1.50
iter:   5 20:26:29  -198.565906  -3.01  -2.18
iter:   6 20:26:37  -198.201414  -2.91  -2.28
iter:   7 20:26:44  -198.052398  -3.33  -2.41
iter:   8 20:26:51  -197.952690  -3.05  -2.53
iter:   9 20:26:58  -197.943636c -3.99  -2.82
iter:  10 20:27:06  -197.983192c -4.09  -2.84
iter:  11 20:27:13  -197.924149c -4.07  -2.59
iter:  12 20:27:20  -197.922169c -4.63  -3.12
iter:  13 20:27:27  -197.921471c -5.33  -3.20
iter:  14 20:27:35  -197.920901c -5.18  -3.28
iter:  15 20:27:42  -197.920959c -5.06  -3.43
iter:  16 20:27:49  -197.921185c -5.87  -3.64
iter:  17 20:27:56  -197.921328c -6.06  -3.63
iter:  18 20:28:04  -197.920979c -5.86  -3.53
iter:  19 20:28:11  -197.921073c -5.95  -3.90
iter:  20 20:28:18  -197.921076c -6.82  -4.05c
iter:  21 20:28:25  -197.921066c -6.56  -4.04c
iter:  22 20:28:33  -197.921057c -6.78  -4.18c
iter:  23 20:28:40  -197.921037c -7.64c -4.41c

Converged after 23 iterations.

Dipole moment: (-1.095056, -0.117031, -0.222477) |e|*Ang

Energy contributions relative to reference atoms: (reference = -3516703.949422)

Kinetic:       -184.048037
Potential:      +99.294924
External:        +0.000000
XC:            -110.149280
Entropy (-ST):   -1.707086
Local:           -2.165100
--------------------------
Free energy:   -198.774580
Extrapolated:  -197.921037

Showing only first 2 kpts
 Kpt  Band  Eigenvalues  Occupancy
  0   205      1.59982    1.49910
  0   206      1.64962    1.29050
  0   207      1.70162    1.03906
  0   208      1.77957    0.66305

  1   205      1.63527    1.35475
  1   206      1.70731    1.01065
  1   207      1.72810    0.90698
  1   208      1.73686    0.86377


Fermi level: 1.70944

No gap

Forces in eV/Ang:
  0 Rh    0.00207   -0.01457    0.46255
  1 Rh   -0.01638   -0.03498    0.46411
  2 Rh    0.01908   -0.03359    0.46162
  3 Rh   -0.04185    0.07601    0.37725
  4 Rh    0.00070    0.02328    0.46616
  5 Rh    0.04325    0.07517    0.37468
  6 Rh   -0.00980    0.00266    0.42851
  7 Rh    0.01412    0.00206    0.42229
  8 Rh    0.00807   -0.09266    0.29242
  9 Rh   -0.03351   -0.03123   -0.08080
 10 Rh    0.03652   -0.03167   -0.08953
 11 Rh    0.00232   -0.01623    0.01493
 12 Rh   -0.00387   -0.00724    0.07896
 13 Rh    0.02078   -0.01024    0.05674
 14 Rh   -0.01963   -0.01126    0.05437
 15 Rh    0.03877    0.08210    0.10984
 16 Rh   -0.00204    0.01398   -0.23670
 17 Rh   -0.03902    0.07753    0.10647
 18 Rh    0.44100   -0.05086    0.98211
 19 Rh   -0.44498   -0.04162    0.99189
 20 Rh   -0.00756    0.02307   -0.51990
 21 Rh    0.00515    0.29937   -0.44572
 22 Rh    0.06271    0.06269   -0.49330
 23 Rh   -0.06529    0.06074   -0.50419
 24 Rh   -0.07825   -0.07828   -0.49626
 25 Rh   -0.00821   -0.26102   -0.42740
 26 Rh    0.07754   -0.07420   -0.49503
 27 O     0.00265    0.00022   -3.48685
 28 C    -0.00276   -0.00864    1.16039

System changes: positions 

Initializing position-dependent things.

Density initialized from wave functions
                                           
                                           
                                           
                                           
                                           
                                           
                                           
          O                                
                Rh     Rh     Rh           
          C                                
            Rh   RRh    RRh    Rh          
       Rh    RRh   RRh    Rh               
                                           
        Rh     Rh   RRh    Rh    Rh        
                                           
                Rh    Rh     Rh            
           Rh    Rh     Rh                 
                                           
                                           
                                           
                                           

Positions:
   0 Rh     1.357645    0.783837    6.000000    ( 0.0000,  0.0000,  0.0000)
   1 Rh     4.072935    0.783837    6.000000    ( 0.0000,  0.0000,  0.0000)
   2 Rh     6.788225    0.783837    6.000000    ( 0.0000,  0.0000,  0.0000)
   3 Rh     2.715290    3.135347    6.000000    ( 0.0000,  0.0000,  0.0000)
   4 Rh     5.430580    3.135347    6.000000    ( 0.0000,  0.0000,  0.0000)
   5 Rh     8.145870    3.135347    6.000000    ( 0.0000,  0.0000,  0.0000)
   6 Rh     4.072935    5.486857    6.000000    ( 0.0000,  0.0000,  0.0000)
   7 Rh     6.788225    5.486857    6.000000    ( 0.0000,  0.0000,  0.0000)
   8 Rh     9.503515    5.486857    6.000000    ( 0.0000,  0.0000,  0.0000)
   9 Rh    -0.000000    1.567673    8.217025    ( 0.0000,  0.0000,  0.0000)
  10 Rh     2.715290    1.567673    8.217025    ( 0.0000,  0.0000,  0.0000)
  11 Rh     5.430580    1.567673    8.217025    ( 0.0000,  0.0000,  0.0000)
  12 Rh     1.357645    3.919184    8.217025    ( 0.0000,  0.0000,  0.0000)
  13 Rh     4.072935    3.919184    8.217025    ( 0.0000,  0.0000,  0.0000)
  14 Rh     6.788225    3.919184    8.217025    ( 0.0000,  0.0000,  0.0000)
  15 Rh     2.715290    6.270694    8.217025    ( 0.0000,  0.0000,  0.0000)
  16 Rh     5.430580    6.270694    8.217025    ( 0.0000,  0.0000,  0.0000)
  17 Rh     8.145870    6.270694    8.217025    ( 0.0000,  0.0000,  0.0000)
  18 Rh     0.000000    0.000000   10.434050    ( 0.0000,  0.0000,  0.0000)
  19 Rh     2.715290    0.000000   10.434050    ( 0.0000,  0.0000,  0.0000)
  20 Rh     5.430580    0.000000   10.434050    ( 0.0000,  0.0000,  0.0000)
  21 Rh     1.357645    2.351510   10.434050    ( 0.0000,  0.0000,  0.0000)
  22 Rh     4.072935    2.351510   10.434050    ( 0.0000,  0.0000,  0.0000)
  23 Rh     6.788225    2.351510   10.434050    ( 0.0000,  0.0000,  0.0000)
  24 Rh     2.715290    4.703020   10.434050    ( 0.0000,  0.0000,  0.0000)
  25 Rh     5.430580    4.703020   10.434050    ( 0.0000,  0.0000,  0.0000)
  26 Rh     8.145870    4.703020   10.434050    ( 0.0000,  0.0000,  0.0000)
  27 O      1.357645    0.000000   13.584390    ( 0.0000,  0.0000,  0.0000)
  28 C      1.357441   -0.000778   12.397384    ( 0.0000,  0.0000,  0.0000)

Unit cell:
           periodic     x           y           z      points  spacing
  1. axis:    yes    8.145870    0.000000    0.000000    40     0.1764
  2. axis:    yes    4.072935    7.054530    0.000000    40     0.1764
  3. axis:    no     0.000000    0.000000   16.434050    81     0.2029

  Lengths:   8.145870   8.145870  16.434050
  Angles:   90.000000  90.000000  60.000000

Effective grid spacing dv^(1/3) = 0.1939

     iter     time        total  log10-change:
                         energy  eigst   dens
iter:   1 20:28:52  -197.976883  -3.57
iter:   2 20:28:59  -198.004423  -3.99  -2.85
iter:   3 20:29:06  -197.965688c -4.20  -2.61
iter:   4 20:29:13  -197.935233c -4.42  -2.80
iter:   5 20:29:20  -197.933138c -4.79  -3.40
iter:   6 20:29:28  -197.932261c -5.33  -3.48
iter:   7 20:29:35  -197.931761c -5.27  -3.70
iter:   8 20:29:42  -197.931754c -6.01  -3.84
iter:   9 20:29:49  -197.931609c -6.19  -3.88
iter:  10 20:29:57  -197.931677c -6.30  -4.12c
iter:  11 20:30:04  -197.931510c -6.40  -3.81
iter:  12 20:30:11  -197.931489c -7.64c -4.30c

Converged after 12 iterations.

Dipole moment: (-1.105427, -0.093966, -0.183665) |e|*Ang

Energy contributions relative to reference atoms: (reference = -3516703.949422)

Kinetic:       -182.605355
Potential:      +98.085818
External:        +0.000000
XC:            -110.447318
Entropy (-ST):   -1.708062
Local:           -2.110603
--------------------------
Free energy:   -198.785520
Extrapolated:  -197.931489

Showing only first 2 kpts
 Kpt  Band  Eigenvalues  Occupancy
  0   205      1.61644    1.49597
  0   206      1.66557    1.28974
  0   207      1.71501    1.05103
  0   208      1.79569    0.66157

  1   205      1.64995    1.35958
  1   206      1.72325    1.00990
  1   207      1.74392    0.90682
  1   208      1.75243    0.86484


Fermi level: 1.72523

No gap

Forces in eV/Ang:
  0 Rh    0.00211   -0.01482    0.46856
  1 Rh   -0.01532   -0.03421    0.46812
  2 Rh    0.01803   -0.03276    0.46558
  3 Rh   -0.04079    0.07461    0.38234
  4 Rh    0.00071    0.02261    0.46869
  5 Rh    0.04233    0.07377    0.37997
  6 Rh   -0.00923    0.00209    0.43332
  7 Rh    0.01353    0.00152    0.42718
  8 Rh    0.00808   -0.08887    0.30177
  9 Rh   -0.03497   -0.02882   -0.08467
 10 Rh    0.03791   -0.02921   -0.09315
 11 Rh    0.00231   -0.01500    0.01272
 12 Rh   -0.00385   -0.00828    0.07212
 13 Rh    0.02025   -0.01153    0.05348
 14 Rh   -0.01909   -0.01259    0.05113
 15 Rh    0.04179    0.08449    0.11336
 16 Rh   -0.00209    0.01221   -0.24225
 17 Rh   -0.04187    0.07991    0.10978
 18 Rh    0.43662   -0.05310    0.94724
 19 Rh   -0.44042   -0.04423    0.95609
 20 Rh   -0.00739    0.02311   -0.50979
 21 Rh    0.00503    0.29819   -0.45413
 22 Rh    0.06257    0.06156   -0.48499
 23 Rh   -0.06531    0.05954   -0.49585
 24 Rh   -0.07772   -0.07776   -0.48748
 25 Rh   -0.00806   -0.25984   -0.43679
 26 Rh    0.07702   -0.07376   -0.48636
 27 O     0.00252   -0.00010   -2.33256
 28 C    -0.00275   -0.00722    0.09424

Timing:                                      incl.     excl.
-------------------------------------------------------------------
Density initialized from wave functions:     1.923     1.923   0.3% |
 Symmetrize density:                         0.000     0.000   0.0% |
Forces:                                     12.739    12.739   1.9% ||
Hamiltonian:                                 2.440     0.017   0.0% |
 Atomic:                                     0.499     0.251   0.0% |
  XC Correction:                             0.249     0.249   0.0% |
 Calculate atomic Hamiltonians:              1.125     1.125   0.2% |
 Communicate:                                0.017     0.017   0.0% |
 Initialize Hamiltonian:                     0.001     0.001   0.0% |
 Poisson:                                    0.013     0.013   0.0% |
 XC 3D grid:                                 0.767     0.767   0.1% |
LCAO initialization:                        15.339     0.318   0.0% |
 LCAO eigensolver:                           2.412     0.000   0.0% |
  Calculate projections:                     0.004     0.004   0.0% |
  DenseAtomicCorrection:                     0.005     0.005   0.0% |
  Distribute overlap matrix:                 0.189     0.189   0.0% |
  Orbital Layouts:                           0.076     0.076   0.0% |
  Potential matrix:                          2.110     2.110   0.3% |
  Sum over cells:                            0.028     0.028   0.0% |
 LCAO to grid:                              12.033    12.033   1.8% ||
 Set positions (LCAO WFS):                   0.577     0.260   0.0% |
  Basic WFS set positions:                   0.001     0.001   0.0% |
  Basis functions set positions:             0.000     0.000   0.0% |
  P tci:                                     0.179     0.179   0.0% |
  ST tci:                                    0.106     0.106   0.0% |
  mktci:                                     0.031     0.031   0.0% |
PWDescriptor:                                0.017     0.017   0.0% |
Redistribute:                                0.005     0.005   0.0% |
SCF-cycle:                                 634.179     4.427   0.7% |
 Davidson:                                 521.696   103.564  15.4% |-----|
  Apply H:                                  53.593    52.085   7.8% |--|
   HMM T:                                    1.508     1.508   0.2% |
  Subspace diag:                            90.125     0.012   0.0% |
   calc_h_matrix:                           66.569    13.251   2.0% ||
    Apply H:                                53.318    51.820   7.7% |--|
     HMM T:                                  1.498     1.498   0.2% |
   diagonalize:                              2.677     2.677   0.4% |
   rotate_psi:                              20.867    20.867   3.1% ||
  calc. matrices:                          188.754    81.886  12.2% |----|
   Apply H:                                106.868   103.855  15.5% |-----|
    HMM T:                                   3.013     3.013   0.4% |
  diagonalize:                              45.177    45.177   6.7% |--|
  rotate_psi:                               40.482    40.482   6.0% |-|
 Density:                                   54.897     0.002   0.0% |
  Atomic density matrices:                   0.356     0.356   0.1% |
  Mix:                                      26.516    26.516   3.9% |-|
  Multipole moments:                         0.038     0.038   0.0% |
  Pseudo density:                           27.985    27.983   4.2% |-|
   Symmetrize density:                       0.002     0.002   0.0% |
 Hamiltonian:                               51.242     0.333   0.0% |
  Atomic:                                   10.644     5.407   0.8% |
   XC Correction:                            5.236     5.236   0.8% |
  Calculate atomic Hamiltonians:            23.746    23.746   3.5% ||
  Communicate:                               0.208     0.208   0.0% |
  Poisson:                                   0.228     0.228   0.0% |
  XC 3D grid:                               16.083    16.083   2.4% ||
 Orthonormalize:                             1.918     0.001   0.0% |
  calc_s_matrix:                             0.287     0.287   0.0% |
  inverse-cholesky:                          0.061     0.061   0.0% |
  projections:                               1.063     1.063   0.2% |
  rotate_psi_s:                              0.506     0.506   0.1% |
Set symmetry:                                0.001     0.001   0.0% |
Other:                                       4.731     4.731   0.7% |
-------------------------------------------------------------------
Total:                                               671.374 100.0%

Memory usage: 885.53 MiB
Date: Wed Feb 22 20:30:15 2023
