
  ___ ___ ___ _ _ _  
 |   |   |_  | | | | 
 | | | | | . | | | | 
 |__ |  _|___|_____|  22.8.0
 |___|_|             

User:   gotols@vera50-3
Date:   Fri Mar 10 11:56:35 2023
Arch:   x86_64
Pid:    2977249
CWD:    /cephyr/users/gotols/Vera/TIF320-Computational-materials-and-molecular-physics-Assignments
Python: 3.10.4
gpaw:   /apps/Arch/software/GPAW/22.8.0-foss-2022a/lib/python3.10/site-packages/gpaw
_gpaw:  /apps/Arch/software/GPAW/22.8.0-foss-2022a/lib/python3.10/site-packages/
        _gpaw.cpython-310-x86_64-linux-gnu.so
ase:    /apps/Arch/software/ASE/3.22.1-foss-2022a/lib/python3.10/site-packages/ase (version 3.22.1)
numpy:  /apps/Arch/software/SciPy-bundle/2022.05-foss-2022a/lib/python3.10/site-packages/numpy (version 1.22.3)
scipy:  /apps/Arch/software/SciPy-bundle/2022.05-foss-2022a/lib/python3.10/site-packages/scipy (version 1.8.1)
libxc:  5.2.3
units:  Angstrom and eV
cores: 32
OpenMP: False
OMP_NUM_THREADS: 1

Input parameters:
  kpts: [4 4 1]
  mode: {ecut: 450.00000000000006,
         name: pw}
  xc: PBE

System changes: positions, numbers, cell, pbc, initial_charges, initial_magmoms 

Initialize ...

species:
  Rh:
    name: Rhodium
    id: 4e1d209aee696a641de1ffa1459b299f
    Z: 45.0
    valence: 15
    core: 30
    charge: 0.0
    file: /apps/Common/software/GPAW-setups/0.9.20000/Rh.PBE.gz
    compensation charges: {type: gauss,
                           rc: 0.38,
                           lmax: 2}
    cutoffs: {filter: 2.48,
              core: 2.35}
    valence states:
      #              energy  rcut
      - 5s(1.00)    -4.297   1.270
      - 4p(6.00)   -50.429   1.381
      - 5p(0.00)    -0.852   1.381
      - 4d(8.00)    -5.942   1.244
      -  s          22.915   1.270
      -  d          21.270   1.244
  
    # Using partial waves for Rh as LCAO basis

  O:
    name: Oxygen
    id: 32ecd46bf208036f09c70b0ec9a88b78
    Z: 8.0
    valence: 6
    core: 2
    charge: 0.0
    file: /apps/Common/software/GPAW-setups/0.9.20000/O.PBE.gz
    compensation charges: {type: gauss,
                           rc: 0.21,
                           lmax: 2}
    cutoffs: {filter: 1.17,
              core: 0.83}
    valence states:
      #              energy  rcut
      - 2s(2.00)   -23.961   0.688
      - 2p(4.00)    -9.029   0.598
      -  s           3.251   0.688
      -  p          18.182   0.598
      -  d           0.000   0.619
  
    # Using partial waves for O as LCAO basis

  C:
    name: Carbon
    id: 4aa54d4b901d75f77cc0ea3eec22967b
    Z: 6.0
    valence: 4
    core: 2
    charge: 0.0
    file: /apps/Common/software/GPAW-setups/0.9.20000/C.PBE.gz
    compensation charges: {type: gauss,
                           rc: 0.20,
                           lmax: 2}
    cutoffs: {filter: 1.14,
              core: 1.14}
    valence states:
      #              energy  rcut
      - 2s(2.00)   -13.751   0.635
      - 2p(2.00)    -5.284   0.635
      -  s          13.461   0.635
      -  p          21.927   0.635
      -  d           0.000   0.635
  
    # Using partial waves for C as LCAO basis

Reference energy: -3516703.949422  # eV

Spin-paired calculation

Convergence criteria:
 Maximum [total energy] change in last 3 cyles: 0.0005 eV / electron
 Maximum integral of absolute [dens]ity change: 0.0001 electrons / valence electron
 Maximum integral of absolute [eigenst]ate change: 4e-08 eV^2 / valence electron
 Maximum number of scf [iter]ations: 333
 (Square brackets indicate name in SCF output, whereas a 'c' in
 the SCF output indicates the quantity has converged.)

Symmetries present (total): 6

  ( 1  0  0)  ( 1 -1  0)  ( 0  1  0)  ( 0 -1  0)  (-1  1  0)  (-1  0  0)
  ( 0  1  0)  ( 0 -1  0)  ( 1  0  0)  ( 1 -1  0)  (-1  0  0)  (-1  1  0)
  ( 0  0  1)  ( 0  0  1)  ( 0  0  1)  ( 0  0  1)  ( 0  0  1)  ( 0  0  1)
Note: your k-points are not as symmetric as your crystal!

16 k-points: 4 x 4 x 1 Monkhorst-Pack grid
6 k-points in the irreducible part of the Brillouin zone
       k-points in crystal coordinates                weights
   0:     0.12500000   -0.12500000    0.00000000          2/16
   1:     0.12500000    0.12500000    0.00000000          2/16
   2:     0.37500000   -0.37500000    0.00000000          2/16
   3:     0.37500000   -0.12500000    0.00000000          4/16
   4:     0.37500000    0.12500000    0.00000000          4/16
   5:     0.37500000    0.37500000    0.00000000          2/16

Wave functions: Plane wave expansion
  Cutoff energy: 450.000 eV
  Number of coefficients (min, max): 20454, 20528
  Pulay-stress correction: 0.000000 eV/Ang^3 (de/decut=0.000000)
  Using FFTW library
  ScaLapack parameters: grid=1x1, blocksize=None
  Wavefunction extrapolation:
    Improved wavefunction reuse through dual PAW basis 

Occupation numbers: Fermi-Dirac:
  width: 0.1000  # eV
 

Eigensolver
   Davidson(niter=2) 

Densities:
  Coarse grid: 40*40*81 grid
  Fine grid: 80*80*162 grid
  Total Charge: 0.000000 

Density mixing:
  Method: separate
  Backend: pulay
  Linear mixing parameter: 0.05
  old densities: 5
  Damping of long wavelength oscillations: 50 

Hamiltonian:
  XC and Coulomb potentials evaluated on a 80*80*162 grid
  Using the PBE Exchange-Correlation functional
  External potential:
    NoExternalPotential
 

XC parameters: PBE with 2 nearest neighbor stencil

Memory estimate:
  Process memory now: 283.55 MiB
  Calculator: 340.09 MiB
    Density: 4.31 MiB
      Arrays: 1.63 MiB
      Localized functions: 2.04 MiB
      Mixer: 0.64 MiB
    Hamiltonian: 1.12 MiB
      Arrays: 1.07 MiB
      XC: 0.00 MiB
      Poisson: 0.00 MiB
      vbar: 0.06 MiB
    Wavefunctions: 334.66 MiB
      Arrays psit_nG: 237.74 MiB
      Eigensolver: 90.59 MiB
      Projections: 0.37 MiB
      Projectors: 0.73 MiB
      PW-descriptor: 5.22 MiB

Total number of cores used: 32
Parallelization over k-points: 2
Domain decomposition: 2 x 2 x 4

Number of atoms: 29
Number of atomic orbitals: 332
Number of bands in calculation: 253
Number of valence electrons: 415
Bands to converge: occupied

... initialized

Initializing position-dependent things.

Density initialized from atomic densities
Creating initial wave functions:
  253 bands from LCAO basis set

                                           
                                           
                                           
                                           
                                           
                                           
                                           
       O                                   
                Rh     Rh     Rh           
       C                                   
            Rh   RRh    RRh    Rh          
       Rh    RRh   RRh    Rh               
                                           
        Rh     Rh   RRh    Rh    Rh        
                                           
                Rh    Rh     Rh            
           Rh    Rh     Rh                 
                                           
                                           
                                           
                                           

Positions:
   0 Rh     1.357645    0.783837    6.000000    ( 0.0000,  0.0000,  0.0000)
   1 Rh     4.072935    0.783837    6.000000    ( 0.0000,  0.0000,  0.0000)
   2 Rh     6.788225    0.783837    6.000000    ( 0.0000,  0.0000,  0.0000)
   3 Rh     2.715290    3.135347    6.000000    ( 0.0000,  0.0000,  0.0000)
   4 Rh     5.430580    3.135347    6.000000    ( 0.0000,  0.0000,  0.0000)
   5 Rh     8.145870    3.135347    6.000000    ( 0.0000,  0.0000,  0.0000)
   6 Rh     4.072935    5.486857    6.000000    ( 0.0000,  0.0000,  0.0000)
   7 Rh     6.788225    5.486857    6.000000    ( 0.0000,  0.0000,  0.0000)
   8 Rh     9.503515    5.486857    6.000000    ( 0.0000,  0.0000,  0.0000)
   9 Rh    -0.000000    1.567673    8.217025    ( 0.0000,  0.0000,  0.0000)
  10 Rh     2.715290    1.567673    8.217025    ( 0.0000,  0.0000,  0.0000)
  11 Rh     5.430580    1.567673    8.217025    ( 0.0000,  0.0000,  0.0000)
  12 Rh     1.357645    3.919184    8.217025    ( 0.0000,  0.0000,  0.0000)
  13 Rh     4.072935    3.919184    8.217025    ( 0.0000,  0.0000,  0.0000)
  14 Rh     6.788225    3.919184    8.217025    ( 0.0000,  0.0000,  0.0000)
  15 Rh     2.715290    6.270694    8.217025    ( 0.0000,  0.0000,  0.0000)
  16 Rh     5.430580    6.270694    8.217025    ( 0.0000,  0.0000,  0.0000)
  17 Rh     8.145870    6.270694    8.217025    ( 0.0000,  0.0000,  0.0000)
  18 Rh     0.000000    0.000000   10.434050    ( 0.0000,  0.0000,  0.0000)
  19 Rh     2.715290    0.000000   10.434050    ( 0.0000,  0.0000,  0.0000)
  20 Rh     5.430580    0.000000   10.434050    ( 0.0000,  0.0000,  0.0000)
  21 Rh     1.357645    2.351510   10.434050    ( 0.0000,  0.0000,  0.0000)
  22 Rh     4.072935    2.351510   10.434050    ( 0.0000,  0.0000,  0.0000)
  23 Rh     6.788225    2.351510   10.434050    ( 0.0000,  0.0000,  0.0000)
  24 Rh     2.715290    4.703020   10.434050    ( 0.0000,  0.0000,  0.0000)
  25 Rh     5.430580    4.703020   10.434050    ( 0.0000,  0.0000,  0.0000)
  26 Rh     8.145870    4.703020   10.434050    ( 0.0000,  0.0000,  0.0000)
  27 O      0.000000    0.000000   13.584390    ( 0.0000,  0.0000,  0.0000)
  28 C      0.000000    0.000000   12.434050    ( 0.0000,  0.0000,  0.0000)

Unit cell:
           periodic     x           y           z      points  spacing
  1. axis:    yes    8.145870    0.000000    0.000000    40     0.1764
  2. axis:    yes    4.072935    7.054530    0.000000    40     0.1764
  3. axis:    no     0.000000    0.000000   16.434050    81     0.2029

  Lengths:   8.145870   8.145870  16.434050
  Angles:   90.000000  90.000000  60.000000

Effective grid spacing dv^(1/3) = 0.1939

     iter     time        total  log10-change:
                         energy  eigst   dens
iter:   1 11:56:52  -212.367085
iter:   2 11:56:57  -209.919994  -1.32  -1.35
iter:   3 11:57:01  -211.213221  -1.57  -1.37
iter:   4 11:57:06  -200.281643  -1.06  -1.36
iter:   5 11:57:10  -198.969526  -2.20  -1.77
iter:   6 11:57:14  -198.808242  -2.69  -1.98
iter:   7 11:57:19  -198.736196  -2.49  -2.05
iter:   8 11:57:23  -198.684160c -3.23  -2.20
iter:   9 11:57:28  -198.673975c -3.32  -2.27
iter:  10 11:57:32  -198.610306c -3.40  -2.35
iter:  11 11:57:36  -198.564425c -3.36  -2.49
iter:  12 11:57:41  -198.550218c -3.66  -2.78
iter:  13 11:57:45  -198.549549c -4.42  -3.02
iter:  14 11:57:49  -198.549100c -4.80  -3.06
iter:  15 11:57:54  -198.549552c -4.47  -3.11
iter:  16 11:57:58  -198.550512c -4.99  -3.23
iter:  17 11:58:02  -198.548976c -5.34  -3.19
iter:  18 11:58:07  -198.548808c -5.57  -3.37
iter:  19 11:58:11  -198.548939c -5.52  -3.48
iter:  20 11:58:15  -198.549023c -5.65  -3.60
iter:  21 11:58:20  -198.549145c -5.86  -3.70
iter:  22 11:58:24  -198.549266c -6.11  -3.79
iter:  23 11:58:29  -198.549194c -6.38  -3.76
iter:  24 11:58:33  -198.549186c -6.23  -3.91
iter:  25 11:58:37  -198.549174c -6.75  -4.07c
iter:  26 11:58:42  -198.549152c -6.91  -4.13c
iter:  27 11:58:46  -198.549111c -6.90  -4.23c
iter:  28 11:58:50  -198.549120c -7.49c -4.35c

Converged after 28 iterations.

Dipole moment: (-0.236353, -0.136459, -0.026768) |e|*Ang

Energy contributions relative to reference atoms: (reference = -3516703.949422)

Kinetic:       -177.511317
Potential:      +93.473604
External:        +0.000000
XC:            -111.608780
Entropy (-ST):   -1.689797
Local:           -2.057728
--------------------------
Free energy:   -199.394018
Extrapolated:  -198.549120

Showing only first 2 kpts
 Kpt  Band  Eigenvalues  Occupancy
  0   205      1.76425    1.12847
  0   206      1.79882    0.95637
  0   207      1.81233    0.88928
  0   208      1.81418    0.88011

  1   205      1.70094    1.41839
  1   206      1.71184    1.37243
  1   207      1.76485    1.12554
  1   208      1.79113    0.99480


Fermi level: 1.79009

No gap

Forces in eV/Ang:
  0 Rh   -0.01497   -0.00864    0.49344
  1 Rh   -0.00000   -0.03754    0.44773
  2 Rh    0.01497   -0.00864    0.49344
  3 Rh   -0.03251    0.01877    0.44773
  4 Rh    0.03251    0.01877    0.44773
  5 Rh    0.00000    0.12809    0.32934
  6 Rh    0.00000    0.01729    0.49344
  7 Rh    0.11093   -0.06405    0.32934
  8 Rh   -0.11093   -0.06405    0.32934
  9 Rh    0.00000   -0.08454   -0.15191
 10 Rh    0.00278    0.00161    0.00800
 11 Rh   -0.00278    0.00161    0.00800
 12 Rh    0.02524   -0.01457    0.05404
 13 Rh   -0.00000   -0.00321    0.00800
 14 Rh   -0.02524   -0.01457    0.05404
 15 Rh    0.07321    0.04227   -0.15191
 16 Rh   -0.07321    0.04227   -0.15191
 17 Rh    0.00000    0.02915    0.05404
 18 Rh    0.00000    0.00000    2.35290
 19 Rh    0.28704   -0.01011   -0.52683
 20 Rh   -0.28704   -0.01011   -0.52683
 21 Rh    0.13476    0.25364   -0.52683
 22 Rh    0.00000    0.00000   -0.45453
 23 Rh   -0.13476    0.25364   -0.52683
 24 Rh   -0.15227   -0.24352   -0.52683
 25 Rh    0.15227   -0.24352   -0.52683
 26 Rh    0.00000    0.00000   -0.41381
 27 O     0.00000    0.00000    0.52134
 28 C     0.00000   -0.00000   -2.37008

System changes: positions 

Initializing position-dependent things.

Density initialized from wave functions
                                           
                                           
                                           
                                           
                                           
                                           
                                           
       O                                   
                Rh     Rh     Rh           
       C                                   
            Rh   RRh    RRh    Rh          
       Rh    RRh   RRh    Rh               
                                           
        Rh     Rh   RRh    Rh    Rh        
                                           
                Rh    Rh     Rh            
           Rh    Rh     Rh                 
                                           
                                           
                                           
                                           

Positions:
   0 Rh     1.356137    0.782966    6.049692    ( 0.0000,  0.0000,  0.0000)
   1 Rh     4.072935    0.780057    6.045088    ( 0.0000,  0.0000,  0.0000)
   2 Rh     6.789733    0.782966    6.049692    ( 0.0000,  0.0000,  0.0000)
   3 Rh     2.712016    3.137237    6.045088    ( 0.0000,  0.0000,  0.0000)
   4 Rh     5.433854    3.137237    6.045088    ( 0.0000,  0.0000,  0.0000)
   5 Rh     8.145870    3.148246    6.033166    ( 0.0000,  0.0000,  0.0000)
   6 Rh     4.072935    5.488598    6.049692    ( 0.0000,  0.0000,  0.0000)
   7 Rh     6.799396    5.480407    6.033166    ( 0.0000,  0.0000,  0.0000)
   8 Rh     9.492344    5.480407    6.033166    ( 0.0000,  0.0000,  0.0000)
   9 Rh    -0.000000    1.559160    8.201727    ( 0.0000,  0.0000,  0.0000)
  10 Rh     2.715570    1.567835    8.217830    ( 0.0000,  0.0000,  0.0000)
  11 Rh     5.430300    1.567835    8.217830    ( 0.0000,  0.0000,  0.0000)
  12 Rh     1.360187    3.917716    8.222467    ( 0.0000,  0.0000,  0.0000)
  13 Rh     4.072935    3.918860    8.217830    ( 0.0000,  0.0000,  0.0000)
  14 Rh     6.785683    3.917716    8.222467    ( 0.0000,  0.0000,  0.0000)
  15 Rh     2.722663    6.274950    8.201727    ( 0.0000,  0.0000,  0.0000)
  16 Rh     5.423208    6.274950    8.201727    ( 0.0000,  0.0000,  0.0000)
  17 Rh     8.145870    6.273629    8.222467    ( 0.0000,  0.0000,  0.0000)
  18 Rh     0.000000    0.000000   10.670997    ( 0.0000,  0.0000,  0.0000)
  19 Rh     2.744196   -0.001018   10.380997    ( 0.0000,  0.0000,  0.0000)
  20 Rh     5.401674   -0.001018   10.380997    ( 0.0000,  0.0000,  0.0000)
  21 Rh     1.371216    2.377052   10.380997    ( 0.0000,  0.0000,  0.0000)
  22 Rh     4.072935    2.351510   10.388278    ( 0.0000,  0.0000,  0.0000)
  23 Rh     6.774654    2.377052   10.380997    ( 0.0000,  0.0000,  0.0000)
  24 Rh     2.699955    4.678496   10.380997    ( 0.0000,  0.0000,  0.0000)
  25 Rh     5.445915    4.678496   10.380997    ( 0.0000,  0.0000,  0.0000)
  26 Rh     8.145870    4.703020   10.392377    ( 0.0000,  0.0000,  0.0000)
  27 O      0.000000    0.000000   13.636891    ( 0.0000,  0.0000,  0.0000)
  28 C      0.000000   -0.000000   12.195374    ( 0.0000,  0.0000,  0.0000)

Unit cell:
           periodic     x           y           z      points  spacing
  1. axis:    yes    8.145870    0.000000    0.000000    40     0.1764
  2. axis:    yes    4.072935    7.054530    0.000000    40     0.1764
  3. axis:    no     0.000000    0.000000   16.434050    81     0.2029

  Lengths:   8.145870   8.145870  16.434050
  Angles:   90.000000  90.000000  60.000000

Effective grid spacing dv^(1/3) = 0.1939

     iter     time        total  log10-change:
                         energy  eigst   dens
iter:   1 11:58:56  -219.836623  -0.41
iter:   2 11:59:01  -220.582129  -1.08  -1.41
iter:   3 11:59:06  -215.955884  -1.31  -1.34
iter:   4 11:59:10  -199.526234  -1.84  -1.41
iter:   5 11:59:14  -196.766819  -2.15  -1.87
iter:   6 11:59:19  -196.221196  -2.51  -2.14
iter:   7 11:59:23  -196.021122  -3.25  -2.18
iter:   8 11:59:28  -195.910701  -3.12  -2.27
iter:   9 11:59:32  -196.324077  -2.69  -2.30
iter:  10 11:59:36  -195.706878  -3.16  -2.10
iter:  11 11:59:41  -195.670069  -3.63  -2.65
iter:  12 11:59:45  -195.654853c -3.92  -2.78
iter:  13 11:59:50  -195.645238c -3.95  -2.90
iter:  14 11:59:54  -195.642934c -4.12  -3.08
iter:  15 11:59:58  -195.643983c -4.99  -3.19
iter:  16 12:00:03  -195.645102c -5.19  -3.19
iter:  17 12:00:07  -195.643858c -4.95  -3.11
iter:  18 12:00:11  -195.643725c -5.24  -3.44
iter:  19 12:00:16  -195.643273c -5.30  -3.61
iter:  20 12:00:20  -195.643312c -5.83  -3.76
iter:  21 12:00:25  -195.643298c -6.33  -3.83
iter:  22 12:00:29  -195.643388c -6.10  -3.85
iter:  23 12:00:33  -195.643275c -6.36  -3.91
iter:  24 12:00:38  -195.643265c -6.82  -4.19c
iter:  25 12:00:42  -195.643270c -6.77  -4.25c
iter:  26 12:00:46  -195.643272c -7.19  -4.33c
iter:  27 12:00:51  -195.643303c -6.93  -4.39c
iter:  28 12:00:55  -195.643283c -7.59c -4.38c

Converged after 28 iterations.

Dipole moment: (-0.020584, -0.011884, -0.899558) |e|*Ang

Energy contributions relative to reference atoms: (reference = -3516703.949422)

Kinetic:       -134.937549
Potential:      +59.495959
External:        +0.000000
XC:            -116.983541
Entropy (-ST):   -1.618529
Local:           -2.408887
--------------------------
Free energy:   -196.452548
Extrapolated:  -195.643283

Showing only first 2 kpts
 Kpt  Band  Eigenvalues  Occupancy
  0   205      1.44365    1.16878
  0   206      1.47520    1.01266
  0   207      1.49522    0.91276
  0   208      1.52245    0.78005

  1   205      1.38464    1.43451
  1   206      1.39291    1.40040
  1   207      1.43148    1.22724
  1   208      1.45593    1.10857


Fermi level: 1.47773

No gap

Forces in eV/Ang:
  0 Rh    0.01829    0.01056    0.06543
  1 Rh    0.00000    0.00957    0.10901
  2 Rh   -0.01829    0.01056    0.06543
  3 Rh    0.00829   -0.00479    0.10901
  4 Rh   -0.00829   -0.00479    0.10901
  5 Rh    0.00000    0.13104    0.07101
  6 Rh    0.00000   -0.02112    0.06543
  7 Rh    0.11349   -0.06552    0.07101
  8 Rh   -0.11349   -0.06552    0.07101
  9 Rh    0.00000   -0.20680    0.10348
 10 Rh   -0.05076   -0.02931   -0.02799
 11 Rh    0.05076   -0.02931   -0.02799
 12 Rh   -0.06560    0.03787   -0.12839
 13 Rh    0.00000    0.05861   -0.02799
 14 Rh    0.06560    0.03787   -0.12839
 15 Rh    0.17909    0.10340    0.10348
 16 Rh   -0.17909    0.10340    0.10348
 17 Rh    0.00000   -0.07575   -0.12839
 18 Rh    0.00000    0.00000  -14.23613
 19 Rh   -0.12809    0.00949   -0.06368
 20 Rh    0.12809    0.00949   -0.06368
 21 Rh   -0.05583   -0.11567   -0.06368
 22 Rh    0.00000    0.00000   -0.10948
 23 Rh    0.05583   -0.11567   -0.06368
 24 Rh    0.07226    0.10618   -0.06368
 25 Rh   -0.07226    0.10618   -0.06368
 26 Rh    0.00000    0.00000   -0.13880
 27 O    -0.00000    0.00000   -9.48967
 28 C     0.00000    0.00000   23.72501

System changes: positions 

Initializing position-dependent things.

Density initialized from wave functions
                                           
                                           
                                           
                                           
                                           
                                           
                                           
       O                                   
                Rh     Rh     Rh           
       C                                   
            Rh   RRh    RRh    Rh          
       Rh    RRh   RRh    Rh               
                                           
        Rh     Rh   RRh    Rh    Rh        
                                           
                Rh    Rh     Rh            
           Rh    Rh     Rh                 
                                           
                                           
                                           
                                           

Positions:
   0 Rh     1.355225    0.782440    6.092463    ( 0.0000,  0.0000,  0.0000)
   1 Rh     4.072935    0.777079    6.084840    ( 0.0000,  0.0000,  0.0000)
   2 Rh     6.790645    0.782440    6.092463    ( 0.0000,  0.0000,  0.0000)
   3 Rh     2.709438    3.138726    6.084840    ( 0.0000,  0.0000,  0.0000)
   4 Rh     5.436432    3.138726    6.084840    ( 0.0000,  0.0000,  0.0000)
   5 Rh     8.145870    3.161516    6.062233    ( 0.0000,  0.0000,  0.0000)
   6 Rh     4.072935    5.489651    6.092463    ( 0.0000,  0.0000,  0.0000)
   7 Rh     6.810888    5.473773    6.062233    ( 0.0000,  0.0000,  0.0000)
   8 Rh     9.480852    5.473773    6.062233    ( 0.0000,  0.0000,  0.0000)
   9 Rh    -0.000000    1.548117    8.190907    ( 0.0000,  0.0000,  0.0000)
  10 Rh     2.714840    1.567414    8.217972    ( 0.0000,  0.0000,  0.0000)
  11 Rh     5.431030    1.567414    8.217972    ( 0.0000,  0.0000,  0.0000)
  12 Rh     1.361065    3.917209    8.224576    ( 0.0000,  0.0000,  0.0000)
  13 Rh     4.072935    3.919703    8.217972    ( 0.0000,  0.0000,  0.0000)
  14 Rh     6.784805    3.917209    8.224576    ( 0.0000,  0.0000,  0.0000)
  15 Rh     2.732226    6.280472    8.190907    ( 0.0000,  0.0000,  0.0000)
  16 Rh     5.413644    6.280472    8.190907    ( 0.0000,  0.0000,  0.0000)
  17 Rh     8.145870    6.274643    8.224576    ( 0.0000,  0.0000,  0.0000)
  18 Rh     0.000000    0.000000   10.598583    ( 0.0000,  0.0000,  0.0000)
  19 Rh     2.765920   -0.001689   10.335449    ( 0.0000,  0.0000,  0.0000)
  20 Rh     5.379950   -0.001689   10.335449    ( 0.0000,  0.0000,  0.0000)
  21 Rh     1.381497    2.396201   10.335449    ( 0.0000,  0.0000,  0.0000)
  22 Rh     4.072935    2.351510   10.347944    ( 0.0000,  0.0000,  0.0000)
  23 Rh     6.764373    2.396201   10.335449    ( 0.0000,  0.0000,  0.0000)
  24 Rh     2.688513    4.660018   10.335449    ( 0.0000,  0.0000,  0.0000)
  25 Rh     5.457358    4.660018   10.335449    ( 0.0000,  0.0000,  0.0000)
  26 Rh     8.145870    4.703020   10.354914    ( 0.0000,  0.0000,  0.0000)
  27 O      0.000000    0.000000   13.500497    ( 0.0000,  0.0000,  0.0000)
  28 C      0.000000   -0.000000   12.446598    ( 0.0000,  0.0000,  0.0000)

Unit cell:
           periodic     x           y           z      points  spacing
  1. axis:    yes    8.145870    0.000000    0.000000    40     0.1764
  2. axis:    yes    4.072935    7.054530    0.000000    40     0.1764
  3. axis:    no     0.000000    0.000000   16.434050    81     0.2029

  Lengths:   8.145870   8.145870  16.434050
  Angles:   90.000000  90.000000  60.000000

Effective grid spacing dv^(1/3) = 0.1939

     iter     time        total  log10-change:
                         energy  eigst   dens
iter:   1 12:01:01  -206.950495  -0.81
iter:   2 12:01:06  -202.026143  -1.78  -1.63
iter:   3 12:01:10  -203.163635  -2.13  -1.97
iter:   4 12:01:14  -201.146816  -2.19  -1.73
iter:   5 12:01:19  -199.157455  -1.88  -1.84
iter:   6 12:01:23  -198.688173  -2.64  -2.13
iter:   7 12:01:28  -198.474223  -2.99  -2.24
iter:   8 12:01:32  -198.336825  -3.22  -2.42
iter:   9 12:01:36  -198.256318  -2.98  -2.55
iter:  10 12:01:41  -198.231415c -3.55  -2.62
iter:  11 12:01:45  -198.215543c -4.23  -2.74
iter:  12 12:01:50  -198.208778c -4.60  -2.86
iter:  13 12:01:54  -198.206108c -4.12  -2.98
iter:  14 12:01:58  -198.205421c -4.65  -3.14
iter:  15 12:02:03  -198.205417c -4.99  -3.21
iter:  16 12:02:07  -198.204967c -5.36  -3.25
iter:  17 12:02:12  -198.205649c -5.52  -3.39
iter:  18 12:02:16  -198.204613c -4.88  -3.29
iter:  19 12:02:20  -198.204655c -5.83  -3.69
iter:  20 12:02:25  -198.204581c -6.23  -3.75
iter:  21 12:02:29  -198.204627c -5.81  -3.88
iter:  22 12:02:34  -198.204634c -6.44  -4.13c
iter:  23 12:02:38  -198.204642c -6.95  -4.05c
iter:  24 12:02:42  -198.204621c -7.00  -4.06c
iter:  25 12:02:47  -198.204621c -7.18  -4.22c
iter:  26 12:02:51  -198.204635c -7.09  -4.30c
iter:  27 12:02:56  -198.204628c -7.27  -4.41c
iter:  28 12:03:00  -198.204645c -7.13  -4.55c
iter:  29 12:03:04  -198.204631c -7.52c -4.53c

Converged after 29 iterations.

Dipole moment: (0.190077, 0.109741, 0.029202) |e|*Ang

Energy contributions relative to reference atoms: (reference = -3516703.949422)

Kinetic:       -100.740968
Potential:      +30.459732
External:        +0.000000
XC:            -124.915636
Entropy (-ST):   -1.559505
Local:           -2.228006
--------------------------
Free energy:   -198.984384
Extrapolated:  -198.204631

Showing only first 2 kpts
 Kpt  Band  Eigenvalues  Occupancy
  0   205      1.80157    1.27908
  0   206      1.82486    1.16858
  0   207      1.86564    0.96633
  0   208      1.91060    0.74712

  1   205      1.73915    1.53617
  1   206      1.74433    1.51747
  1   207      1.81551    1.21363
  1   208      1.83738    1.10720


Fermi level: 1.85890

No gap

Forces in eV/Ang:
  0 Rh    0.06788    0.03919   -0.43702
  1 Rh    0.00000    0.05238   -0.26376
  2 Rh   -0.06788    0.03919   -0.43702
  3 Rh    0.04537   -0.02619   -0.26376
  4 Rh   -0.04537   -0.02619   -0.26376
  5 Rh    0.00000   -0.04263   -0.15877
  6 Rh    0.00000   -0.07839   -0.43702
  7 Rh   -0.03692    0.02131   -0.15877
  8 Rh    0.03692    0.02131   -0.15877
  9 Rh    0.00000   -0.02895    0.49663
 10 Rh   -0.04069   -0.02349   -0.06245
 11 Rh    0.04069   -0.02349   -0.06245
 12 Rh   -0.12765    0.07370   -0.28062
 13 Rh    0.00000    0.04698   -0.06245
 14 Rh    0.12765    0.07370   -0.28062
 15 Rh    0.02507    0.01447    0.49663
 16 Rh   -0.02507    0.01447    0.49663
 17 Rh    0.00000   -0.14740   -0.28062
 18 Rh    0.00000    0.00000   -0.44146
 19 Rh   -0.54953   -0.01292    0.32722
 20 Rh    0.54953   -0.01292    0.32722
 21 Rh   -0.28596   -0.46945    0.32722
 22 Rh    0.00000    0.00000    0.26844
 23 Rh    0.28596   -0.46945    0.32722
 24 Rh    0.26358    0.48237    0.32722
 25 Rh   -0.26358    0.48237    0.32722
 26 Rh   -0.00000    0.00000    0.20299
 27 O     0.00000    0.00000   15.76833
 28 C     0.00000    0.00000  -15.57040

System changes: positions 

Initializing position-dependent things.

Density initialized from wave functions
                                           
                                           
                                           
                                           
                                           
                                           
                                           
       O                                   
                                           
       C        Rh     Rh     Rh           
            Rh   RRh    RRh    Rh          
       Rh     Rh    Rh                     
             Rh    Rh     Rh               
        Rh     Rh   RRh    Rh    Rh        
                                           
                Rh    Rh     Rh            
           Rh    Rh     Rh                 
                                           
                                           
                                           
                                           

Positions:
   0 Rh     1.355997    0.782885    6.122972    ( 0.0000,  0.0000,  0.0000)
   1 Rh     4.072935    0.775506    6.116655    ( 0.0000,  0.0000,  0.0000)
   2 Rh     6.789873    0.782885    6.122972    ( 0.0000,  0.0000,  0.0000)
   3 Rh     2.708075    3.139512    6.116655    ( 0.0000,  0.0000,  0.0000)
   4 Rh     5.437795    3.139512    6.116655    ( 0.0000,  0.0000,  0.0000)
   5 Rh     8.145870    3.173435    6.086276    ( 0.0000,  0.0000,  0.0000)
   6 Rh     4.072935    5.488760    6.122972    ( 0.0000,  0.0000,  0.0000)
   7 Rh     6.821210    5.467813    6.086276    ( 0.0000,  0.0000,  0.0000)
   8 Rh     9.470530    5.467813    6.086276    ( 0.0000,  0.0000,  0.0000)
   9 Rh    -0.000000    1.536447    8.192547    ( 0.0000,  0.0000,  0.0000)
  10 Rh     2.713067    1.566390    8.216571    ( 0.0000,  0.0000,  0.0000)
  11 Rh     5.432803    1.566390    8.216571    ( 0.0000,  0.0000,  0.0000)
  12 Rh     1.358741    3.918551    8.219677    ( 0.0000,  0.0000,  0.0000)
  13 Rh     4.072935    3.921750    8.216571    ( 0.0000,  0.0000,  0.0000)
  14 Rh     6.787129    3.918551    8.219677    ( 0.0000,  0.0000,  0.0000)
  15 Rh     2.742333    6.286307    8.192547    ( 0.0000,  0.0000,  0.0000)
  16 Rh     5.403537    6.286307    8.192547    ( 0.0000,  0.0000,  0.0000)
  17 Rh     8.145870    6.271960    8.219677    ( 0.0000,  0.0000,  0.0000)
  18 Rh     0.000000    0.000000   10.484508    ( 0.0000,  0.0000,  0.0000)
  19 Rh     2.773331   -0.002606   10.299732    ( 0.0000,  0.0000,  0.0000)
  20 Rh     5.372539   -0.002606   10.299732    ( 0.0000,  0.0000,  0.0000)
  21 Rh     1.384409    2.403078   10.299732    ( 0.0000,  0.0000,  0.0000)
  22 Rh     4.072935    2.351510   10.315686    ( 0.0000,  0.0000,  0.0000)
  23 Rh     6.761461    2.403078   10.299732    ( 0.0000,  0.0000,  0.0000)
  24 Rh     2.684013    4.654058   10.299732    ( 0.0000,  0.0000,  0.0000)
  25 Rh     5.461857    4.654058   10.299732    ( 0.0000,  0.0000,  0.0000)
  26 Rh     8.145870    4.703020   10.323772    ( 0.0000,  0.0000,  0.0000)
  27 O      0.000000    0.000000   13.717797    ( 0.0000,  0.0000,  0.0000)
  28 C      0.000000   -0.000000   12.377921    ( 0.0000,  0.0000,  0.0000)

Unit cell:
           periodic     x           y           z      points  spacing
  1. axis:    yes    8.145870    0.000000    0.000000    40     0.1764
  2. axis:    yes    4.072935    7.054530    0.000000    40     0.1764
  3. axis:    no     0.000000    0.000000   16.434050    81     0.2029

  Lengths:   8.145870   8.145870  16.434050
  Angles:   90.000000  90.000000  60.000000

Effective grid spacing dv^(1/3) = 0.1939

     iter     time        total  log10-change:
                         energy  eigst   dens
iter:   1 12:03:10  -257.355336  -0.10
iter:   2 12:03:15  -250.549573  -0.75  -1.23
iter:   3 12:03:19  -219.904137  -1.07  -1.19
iter:   4 12:03:23  -201.254434  -1.56  -1.38
iter:   5 12:03:28  -198.204402  -2.11  -1.74
iter:   6 12:03:32  -198.048129  -3.12  -2.20
iter:   7 12:03:37  -197.951138  -2.37  -2.27
iter:   8 12:03:41  -197.780917  -2.96  -2.42
iter:   9 12:03:45  -197.647248  -3.28  -2.55
iter:  10 12:03:50  -197.637083c -3.74  -2.72
iter:  11 12:03:54  -197.647619c -3.87  -2.71
iter:  12 12:03:59  -197.601682c -4.03  -2.63
iter:  13 12:04:03  -197.600008c -4.72  -3.09
iter:  14 12:04:08  -197.599905c -5.47  -3.20
iter:  15 12:04:12  -197.599834c -5.20  -3.24
iter:  16 12:04:17  -197.600758c -5.16  -3.43
iter:  17 12:04:21  -197.600388c -5.59  -3.43
iter:  18 12:04:25  -197.599912c -5.88  -3.42
iter:  19 12:04:30  -197.599957c -5.86  -3.68
iter:  20 12:04:34  -197.599947c -6.31  -3.76
iter:  21 12:04:39  -197.599963c -6.41  -3.86
iter:  22 12:04:43  -197.599970c -6.47  -3.96
iter:  23 12:04:47  -197.600077c -6.64  -3.98
iter:  24 12:04:52  -197.600037c -6.77  -3.95
iter:  25 12:04:56  -197.600028c -6.93  -4.10c
iter:  26 12:05:01  -197.600014c -7.11  -4.19c
iter:  27 12:05:05  -197.599981c -7.11  -4.29c
iter:  28 12:05:09  -197.599982c -7.10  -4.40c
iter:  29 12:05:14  -197.599964c -7.80c -4.38c

Converged after 29 iterations.

Dipole moment: (0.428361, 0.247314, -0.515605) |e|*Ang

Energy contributions relative to reference atoms: (reference = -3516703.949422)

Kinetic:       -105.922888
Potential:      +34.042268
External:        +0.000000
XC:            -122.689932
Entropy (-ST):   -1.512052
Local:           -2.273386
--------------------------
Free energy:   -198.355990
Extrapolated:  -197.599964

Showing only first 2 kpts
 Kpt  Band  Eigenvalues  Occupancy
  0   205      1.60527    1.38173
  0   206      1.62228    1.30678
  0   207      1.69404    0.95825
  0   208      1.74356    0.71842

  1   205      1.52539    1.66485
  1   206      1.58326    1.47158
  1   207      1.64179    1.21599
  1   208      1.66328    1.11154


Fermi level: 1.68568

No gap

Forces in eV/Ang:
  0 Rh    0.08339    0.04815   -0.81363
  1 Rh   -0.00000    0.07877   -0.59754
  2 Rh   -0.08339    0.04815   -0.81363
  3 Rh    0.06822   -0.03939   -0.59754
  4 Rh   -0.06822   -0.03939   -0.59754
  5 Rh    0.00000   -0.21240   -0.39348
  6 Rh    0.00000   -0.09630   -0.81363
  7 Rh   -0.18394    0.10620   -0.39348
  8 Rh    0.18394    0.10620   -0.39348
  9 Rh    0.00000    0.24253    0.46343
 10 Rh    0.00291    0.00168   -0.08812
 11 Rh   -0.00291    0.00168   -0.08812
 12 Rh   -0.12317    0.07111   -0.32739
 13 Rh    0.00000   -0.00336   -0.08812
 14 Rh    0.12317    0.07111   -0.32739
 15 Rh   -0.21004   -0.12126    0.46343
 16 Rh    0.21004   -0.12126    0.46343
 17 Rh   -0.00000   -0.14222   -0.32739
 18 Rh    0.00000    0.00000    1.89753
 19 Rh   -0.60634   -0.02937    0.65902
 20 Rh    0.60634   -0.02937    0.65902
 21 Rh   -0.32860   -0.51042    0.65902
 22 Rh   -0.00000    0.00000    0.58764
 23 Rh    0.32860   -0.51042    0.65902
 24 Rh    0.27774    0.53979    0.65902
 25 Rh   -0.27774    0.53979    0.65902
 26 Rh    0.00000    0.00000    0.48285
 27 O     0.00000    0.00000   -9.67798
 28 C     0.00000    0.00000    8.08389

System changes: positions 

Initializing position-dependent things.

Density initialized from wave functions
                                           
                                           
                                           
                                           
                                           
                                           
                                           
       O                                   
                Rh     Rh     Rh           
       C                                   
            Rh   RRh    RRh    Rh          
       Rh    RRh   RRh    Rh               
                                           
        Rh     Rh   RRh    Rh    Rh        
                                           
                Rh    Rh     Rh            
           Rh    Rh     Rh                 
                                           
                                           
                                           
                                           

Positions:
   0 Rh     1.356845    0.783375    6.067641    ( 0.0000,  0.0000,  0.0000)
   1 Rh     4.072935    0.779234    6.064411    ( 0.0000,  0.0000,  0.0000)
   2 Rh     6.789025    0.783375    6.067641    ( 0.0000,  0.0000,  0.0000)
   3 Rh     2.711304    3.137648    6.064411    ( 0.0000,  0.0000,  0.0000)
   4 Rh     5.434567    3.137648    6.064411    ( 0.0000,  0.0000,  0.0000)
   5 Rh     8.145870    3.155531    6.047858    ( 0.0000,  0.0000,  0.0000)
   6 Rh     4.072935    5.487781    6.067641    ( 0.0000,  0.0000,  0.0000)
   7 Rh     6.805705    5.476765    6.047858    ( 0.0000,  0.0000,  0.0000)
   8 Rh     9.486035    5.476765    6.047858    ( 0.0000,  0.0000,  0.0000)
   9 Rh    -0.000000    1.552416    8.203155    ( 0.0000,  0.0000,  0.0000)
  10 Rh     2.714479    1.567205    8.216605    ( 0.0000,  0.0000,  0.0000)
  11 Rh     5.431391    1.567205    8.216605    ( 0.0000,  0.0000,  0.0000)
  12 Rh     1.358386    3.918756    8.218331    ( 0.0000,  0.0000,  0.0000)
  13 Rh     4.072935    3.920120    8.216605    ( 0.0000,  0.0000,  0.0000)
  14 Rh     6.787484    3.918756    8.218331    ( 0.0000,  0.0000,  0.0000)
  15 Rh     2.728504    6.278323    8.203155    ( 0.0000,  0.0000,  0.0000)
  16 Rh     5.417366    6.278323    8.203155    ( 0.0000,  0.0000,  0.0000)
  17 Rh     8.145870    6.271549    8.218331    ( 0.0000,  0.0000,  0.0000)
  18 Rh     0.000000    0.000000   10.559760    ( 0.0000,  0.0000,  0.0000)
  19 Rh     2.748109   -0.001709   10.359242    ( 0.0000,  0.0000,  0.0000)
  20 Rh     5.397762   -0.001709   10.359242    ( 0.0000,  0.0000,  0.0000)
  21 Rh     1.372574    2.380787   10.359242    ( 0.0000,  0.0000,  0.0000)
  22 Rh     4.072935    2.351510   10.368564    ( 0.0000,  0.0000,  0.0000)
  23 Rh     6.773296    2.380787   10.359242    ( 0.0000,  0.0000,  0.0000)
  24 Rh     2.697400    4.675453   10.359242    ( 0.0000,  0.0000,  0.0000)
  25 Rh     5.448470    4.675453   10.359242    ( 0.0000,  0.0000,  0.0000)
  26 Rh     8.145870    4.703020   10.373022    ( 0.0000,  0.0000,  0.0000)
  27 O      0.000000    0.000000   13.586922    ( 0.0000,  0.0000,  0.0000)
  28 C      0.000000   -0.000000   12.383139    ( 0.0000,  0.0000,  0.0000)

Unit cell:
           periodic     x           y           z      points  spacing
  1. axis:    yes    8.145870    0.000000    0.000000    40     0.1764
  2. axis:    yes    4.072935    7.054530    0.000000    40     0.1764
  3. axis:    no     0.000000    0.000000   16.434050    81     0.2029

  Lengths:   8.145870   8.145870  16.434050
  Angles:   90.000000  90.000000  60.000000

Effective grid spacing dv^(1/3) = 0.1939

     iter     time        total  log10-change:
                         energy  eigst   dens
iter:   1 12:05:20  -239.108890  -0.84
iter:   2 12:05:24  -271.678688  -0.55  -1.23
iter:   3 12:05:29  -211.091867  -0.89  -1.16
iter:   4 12:05:33  -200.903102  -2.22  -1.55
iter:   5 12:05:37  -200.367311  -3.22  -1.98
iter:   6 12:05:42  -199.404422  -2.68  -2.04
iter:   7 12:05:46  -199.068466  -2.35  -2.26
iter:   8 12:05:51  -199.052449  -3.46  -2.52
iter:   9 12:05:55  -199.035192c -3.86  -2.56
iter:  10 12:06:00  -199.012921c -3.83  -2.69
iter:  11 12:06:04  -199.008049c -4.24  -2.95
iter:  12 12:06:09  -199.008737c -4.71  -3.11
iter:  13 12:06:13  -199.007425c -4.90  -3.16
iter:  14 12:06:17  -199.007110c -5.43  -3.36
iter:  15 12:06:22  -199.006999c -5.63  -3.43
iter:  16 12:06:26  -199.006965c -5.66  -3.56
iter:  17 12:06:31  -199.007159c -5.68  -3.73
iter:  18 12:06:35  -199.007226c -6.10  -3.88
iter:  19 12:06:39  -199.007180c -6.55  -3.88
iter:  20 12:06:44  -199.007147c -6.59  -3.98
iter:  21 12:06:48  -199.007072c -6.35  -4.06c
iter:  22 12:06:53  -199.007067c -6.87  -4.18c
iter:  23 12:06:57  -199.007048c -7.19  -4.33c
iter:  24 12:07:02  -199.007051c -7.46c -4.44c

Converged after 24 iterations.

Dipole moment: (0.142985, 0.082552, -0.281669) |e|*Ang

Energy contributions relative to reference atoms: (reference = -3516703.949422)

Kinetic:       -137.686072
Potential:      +60.165404
External:        +0.000000
XC:            -118.548624
Entropy (-ST):   -1.588292
Local:           -2.143613
--------------------------
Free energy:   -199.801196
Extrapolated:  -199.007051

Showing only first 2 kpts
 Kpt  Band  Eigenvalues  Occupancy
  0   205      1.68775    1.21563
  0   206      1.71326    1.09128
  0   207      1.73616    0.97701
  0   208      1.77814    0.77123

  1   205      1.62795    1.47619
  1   206      1.63132    1.46308
  1   207      1.68185    1.24356
  1   208      1.71596    1.07787


Fermi level: 1.73156

No gap

Forces in eV/Ang:
  0 Rh    0.01336    0.00771   -0.11557
  1 Rh    0.00000    0.02605   -0.06940
  2 Rh   -0.01336    0.00771   -0.11557
  3 Rh    0.02256   -0.01303   -0.06940
  4 Rh   -0.02256   -0.01303   -0.06940
  5 Rh    0.00000   -0.00411   -0.04489
  6 Rh    0.00000   -0.01542   -0.11557
  7 Rh   -0.00356    0.00206   -0.04489
  8 Rh    0.00356    0.00206   -0.04489
  9 Rh    0.00000   -0.08095    0.18896
 10 Rh   -0.01913   -0.01104   -0.02881
 11 Rh    0.01913   -0.01104   -0.02881
 12 Rh   -0.03792    0.02189   -0.09094
 13 Rh    0.00000    0.02209   -0.02881
 14 Rh    0.03792    0.02189   -0.09094
 15 Rh    0.07011    0.04048    0.18896
 16 Rh   -0.07011    0.04048    0.18896
 17 Rh   -0.00000   -0.04379   -0.09094
 18 Rh    0.00000    0.00000    0.10143
 19 Rh   -0.20544   -0.00732    0.07173
 20 Rh    0.20544   -0.00732    0.07173
 21 Rh   -0.10906   -0.17426    0.07173
 22 Rh    0.00000    0.00000    0.04428
 23 Rh    0.10906   -0.17426    0.07173
 24 Rh    0.09638    0.18157    0.07173
 25 Rh   -0.09638    0.18157    0.07173
 26 Rh   -0.00000    0.00000    0.02011
 27 O    -0.00000    0.00000   -3.46816
 28 C     0.00000   -0.00000    3.34663

System changes: positions 

Initializing position-dependent things.

Density initialized from wave functions
                                           
                                           
                                           
                                           
                                           
                                           
                                           
       O                                   
       C                                   
                Rh     Rh     Rh           
            Rh   RRh    RRh    Rh          
       Rh     Rh    Rh                     
             Rh    Rh     Rh               
        Rh     Rh   RRh    Rh    Rh        
                                           
                Rh    Rh     Rh            
           Rh     Rh    Rh                 
                                           
                                           
                                           
                                           

Positions:
   0 Rh     1.367697    0.789640    6.074882    ( 0.0000,  0.0000,  0.0000)
   1 Rh     4.072935    0.782927    6.097877    ( 0.0000,  0.0000,  0.0000)
   2 Rh     6.778173    0.789640    6.074882    ( 0.0000,  0.0000,  0.0000)
   3 Rh     2.714502    3.135802    6.097877    ( 0.0000,  0.0000,  0.0000)
   4 Rh     5.431368    3.135802    6.097877    ( 0.0000,  0.0000,  0.0000)
   5 Rh     8.145870    3.171939    6.078723    ( 0.0000,  0.0000,  0.0000)
   6 Rh     4.072935    5.475250    6.074882    ( 0.0000,  0.0000,  0.0000)
   7 Rh     6.819915    5.468561    6.078723    ( 0.0000,  0.0000,  0.0000)
   8 Rh     9.471825    5.468561    6.078723    ( 0.0000,  0.0000,  0.0000)
   9 Rh    -0.000000    1.535151    8.260801    ( 0.0000,  0.0000,  0.0000)
  10 Rh     2.707881    1.563396    8.203549    ( 0.0000,  0.0000,  0.0000)
  11 Rh     5.437989    1.563396    8.203549    ( 0.0000,  0.0000,  0.0000)
  12 Rh     1.337681    3.930710    8.169123    ( 0.0000,  0.0000,  0.0000)
  13 Rh     4.072935    3.927738    8.203549    ( 0.0000,  0.0000,  0.0000)
  14 Rh     6.808189    3.930710    8.169123    ( 0.0000,  0.0000,  0.0000)
  15 Rh     2.743455    6.286955    8.260801    ( 0.0000,  0.0000,  0.0000)
  16 Rh     5.402415    6.286955    8.260801    ( 0.0000,  0.0000,  0.0000)
  17 Rh     8.145870    6.247641    8.169123    ( 0.0000,  0.0000,  0.0000)
  18 Rh     0.000000    0.000000   10.199433    ( 0.0000,  0.0000,  0.0000)
  19 Rh     2.702012   -0.006793   10.322338    ( 0.0000,  0.0000,  0.0000)
  20 Rh     5.443858   -0.006793   10.322338    ( 0.0000,  0.0000,  0.0000)
  21 Rh     1.345123    2.343407   10.322338    ( 0.0000,  0.0000,  0.0000)
  22 Rh     4.072935    2.351510   10.332998    ( 0.0000,  0.0000,  0.0000)
  23 Rh     6.800747    2.343407   10.322338    ( 0.0000,  0.0000,  0.0000)
  24 Rh     2.716046    4.717916   10.322338    ( 0.0000,  0.0000,  0.0000)
  25 Rh     5.429824    4.717916   10.322338    ( 0.0000,  0.0000,  0.0000)
  26 Rh     8.145870    4.703020   10.329895    ( 0.0000,  0.0000,  0.0000)
  27 O      0.000000    0.000000   13.713627    ( 0.0000,  0.0000,  0.0000)
  28 C      0.000000   -0.000000   12.727136    ( 0.0000,  0.0000,  0.0000)

Unit cell:
           periodic     x           y           z      points  spacing
  1. axis:    yes    8.145870    0.000000    0.000000    40     0.1764
  2. axis:    yes    4.072935    7.054530    0.000000    40     0.1764
  3. axis:    no     0.000000    0.000000   16.434050    81     0.2029

  Lengths:   8.145870   8.145870  16.434050
  Angles:   90.000000  90.000000  60.000000

Effective grid spacing dv^(1/3) = 0.1939

     iter     time        total  log10-change:
                         energy  eigst   dens
iter:   1 12:07:08  -210.233151  -0.55
iter:   2 12:07:12  -203.922871  -1.30  -1.46
iter:   3 12:07:16  -205.468922  -1.71  -1.57
iter:   4 12:07:21  -196.576704  -2.26  -1.50
iter:   5 12:07:25  -195.835917  -2.20  -1.97
iter:   6 12:07:30  -195.384172  -2.82  -2.16
iter:   7 12:07:34  -195.249995  -3.17  -2.37
iter:   8 12:07:39  -195.200225c -3.59  -2.46
iter:   9 12:07:43  -195.570484  -3.22  -2.50
iter:  10 12:07:47  -195.109706  -3.21  -2.15
iter:  11 12:07:52  -195.105564  -4.13  -2.76
iter:  12 12:07:56  -195.099959c -4.65  -2.88
iter:  13 12:08:01  -195.095301c -4.44  -2.97
iter:  14 12:08:05  -195.094428c -4.43  -3.14
iter:  15 12:08:10  -195.100202c -4.88  -3.26
iter:  16 12:08:14  -195.095005c -5.10  -3.07
iter:  17 12:08:18  -195.094217c -5.60  -3.30
iter:  18 12:08:23  -195.094235c -5.44  -3.47
iter:  19 12:08:27  -195.094362c -5.67  -3.60
iter:  20 12:08:32  -195.094515c -6.00  -3.65
iter:  21 12:08:36  -195.094650c -6.17  -3.67
iter:  22 12:08:41  -195.094890c -6.08  -3.62
iter:  23 12:08:45  -195.094318c -6.05  -3.56
iter:  24 12:08:49  -195.094287c -6.50  -3.92
iter:  25 12:08:54  -195.094292c -6.38  -3.97
iter:  26 12:08:58  -195.094299c -6.68  -4.01c
iter:  27 12:09:03  -195.094334c -7.02  -4.05c
iter:  28 12:09:07  -195.094478c -6.30  -4.05c
iter:  29 12:09:12  -195.094353c -6.80  -3.86
iter:  30 12:09:16  -195.094346c -7.64c -4.29c

Converged after 30 iterations.

Dipole moment: (0.976662, 0.563876, 0.429189) |e|*Ang

Energy contributions relative to reference atoms: (reference = -3516703.949422)

Kinetic:        -66.576424
Potential:       +3.483970
External:        +0.000000
XC:            -128.895344
Entropy (-ST):   -1.541237
Local:           -2.335930
--------------------------
Free energy:   -195.864965
Extrapolated:  -195.094346

Showing only first 2 kpts
 Kpt  Band  Eigenvalues  Occupancy
  0   205      1.95532    1.36114
  0   206      1.96571    1.31515
  0   207      2.02245    1.04253
  0   208      2.09097    0.70866

  1   205      1.88428    1.62513
  1   206      1.95831    1.34808
  1   207      1.98625    1.21990
  1   208      2.03721    0.96877


Fermi level: 2.03096

No gap

Forces in eV/Ang:
  0 Rh   -0.19170   -0.11068   -0.14242
  1 Rh   -0.00000    0.06181   -0.51862
  2 Rh    0.19170   -0.11068   -0.14242
  3 Rh    0.05353   -0.03090   -0.51862
  4 Rh   -0.05353   -0.03090   -0.51862
  5 Rh   -0.00000   -0.66090   -0.46565
  6 Rh    0.00000    0.22135   -0.14242
  7 Rh   -0.57235    0.33045   -0.46565
  8 Rh    0.57235    0.33045   -0.46565
  9 Rh    0.00000    0.93964   -1.57103
 10 Rh    0.16653    0.09614    0.07447
 11 Rh   -0.16653    0.09614    0.07447
 12 Rh    0.36219   -0.20911    0.57708
 13 Rh    0.00000   -0.19229    0.07447
 14 Rh   -0.36219   -0.20911    0.57708
 15 Rh   -0.81375   -0.46982   -1.57103
 16 Rh    0.81375   -0.46982   -1.57103
 17 Rh    0.00000    0.41822    0.57708
 18 Rh    0.00000    0.00000    4.66350
 19 Rh    0.59645    0.09952    0.33177
 20 Rh   -0.59645    0.09952    0.33177
 21 Rh    0.38441    0.46678    0.33177
 22 Rh   -0.00000    0.00000    0.28256
 23 Rh   -0.38441    0.46678    0.33177
 24 Rh   -0.21204   -0.56630    0.33177
 25 Rh    0.21204   -0.56630    0.33177
 26 Rh   -0.00000    0.00000    0.27604
 27 O     0.00000    0.00000   30.83133
 28 C     0.00000   -0.00000  -31.81321

System changes: positions 

Initializing position-dependent things.

Density initialized from wave functions
                                           
                                           
                                           
                                           
                                           
                                           
                                           
       O                                   
                Rh     Rh     Rh           
       C                                   
            Rh   RRh    RRh    Rh          
       Rh    RRh   RRh    Rh               
                                           
        Rh     Rh   RRh    Rh    Rh        
                                           
                Rh    Rh     Rh            
           Rh    Rh     Rh                 
                                           
                                           
                                           
                                           

Positions:
   0 Rh     1.359947    0.785166    6.038537    ( 0.0000,  0.0000,  0.0000)
   1 Rh     4.072935    0.782971    6.044007    ( 0.0000,  0.0000,  0.0000)
   2 Rh     6.785923    0.785166    6.038537    ( 0.0000,  0.0000,  0.0000)
   3 Rh     2.714540    3.135780    6.044007    ( 0.0000,  0.0000,  0.0000)
   4 Rh     5.431330    3.135780    6.044007    ( 0.0000,  0.0000,  0.0000)
   5 Rh     8.145870    3.149705    6.034434    ( 0.0000,  0.0000,  0.0000)
   6 Rh     4.072935    5.484199    6.038537    ( 0.0000,  0.0000,  0.0000)
   7 Rh     6.800660    5.479678    6.034434    ( 0.0000,  0.0000,  0.0000)
   8 Rh     9.491080    5.479678    6.034434    ( 0.0000,  0.0000,  0.0000)
   9 Rh    -0.000000    1.553800    8.227140    ( 0.0000,  0.0000,  0.0000)
  10 Rh     2.713072    1.566393    8.212652    ( 0.0000,  0.0000,  0.0000)
  11 Rh     5.432798    1.566393    8.212652    ( 0.0000,  0.0000,  0.0000)
  12 Rh     1.352521    3.922142    8.203807    ( 0.0000,  0.0000,  0.0000)
  13 Rh     4.072935    3.921745    8.212652    ( 0.0000,  0.0000,  0.0000)
  14 Rh     6.793349    3.922142    8.203807    ( 0.0000,  0.0000,  0.0000)
  15 Rh     2.727305    6.277631    8.227140    ( 0.0000,  0.0000,  0.0000)
  16 Rh     5.418565    6.277631    8.227140    ( 0.0000,  0.0000,  0.0000)
  17 Rh     8.145870    6.264777    8.203807    ( 0.0000,  0.0000,  0.0000)
  18 Rh     0.000000    0.000000   10.558814    ( 0.0000,  0.0000,  0.0000)
  19 Rh     2.717967   -0.002590   10.382052    ( 0.0000,  0.0000,  0.0000)
  20 Rh     5.427903   -0.002590   10.382052    ( 0.0000,  0.0000,  0.0000)
  21 Rh     1.356740    2.355123   10.382052    ( 0.0000,  0.0000,  0.0000)
  22 Rh     4.072935    2.351510   10.387422    ( 0.0000,  0.0000,  0.0000)
  23 Rh     6.789130    2.355123   10.382052    ( 0.0000,  0.0000,  0.0000)
  24 Rh     2.711708    4.701997   10.382052    ( 0.0000,  0.0000,  0.0000)
  25 Rh     5.434162    4.701997   10.382052    ( 0.0000,  0.0000,  0.0000)
  26 Rh     8.145870    4.703020   10.387559    ( 0.0000,  0.0000,  0.0000)
  27 O      0.000000    0.000000   13.568717    ( 0.0000,  0.0000,  0.0000)
  28 C      0.000000   -0.000000   12.406293    ( 0.0000,  0.0000,  0.0000)

Unit cell:
           periodic     x           y           z      points  spacing
  1. axis:    yes    8.145870    0.000000    0.000000    40     0.1764
  2. axis:    yes    4.072935    7.054530    0.000000    40     0.1764
  3. axis:    no     0.000000    0.000000   16.434050    81     0.2029

  Lengths:   8.145870   8.145870  16.434050
  Angles:   90.000000  90.000000  60.000000

Effective grid spacing dv^(1/3) = 0.1939

     iter     time        total  log10-change:
                         energy  eigst   dens
iter:   1 12:09:22  -248.625736  -0.39
iter:   2 12:09:27  -303.164308  -0.36  -1.18
iter:   3 12:09:31  -204.200109  -1.12  -1.08
iter:   4 12:09:36  -201.494488  -1.96  -1.70
iter:   5 12:09:40  -200.074748  -2.04  -1.81
iter:   6 12:09:45  -199.286899  -2.16  -2.05
iter:   7 12:09:49  -199.232051  -2.50  -2.26
iter:   8 12:09:53  -199.153954c -3.51  -2.31
iter:   9 12:09:58  -199.124823c -2.90  -2.41
iter:  10 12:10:02  -199.480478  -3.20  -2.48
iter:  11 12:10:07  -199.071789  -3.42  -2.19
iter:  12 12:10:11  -199.053702  -4.25  -2.70
iter:  13 12:10:16  -199.044321c -4.13  -2.86
iter:  14 12:10:20  -199.042942c -4.64  -3.08
iter:  15 12:10:25  -199.041930c -4.95  -3.21
iter:  16 12:10:29  -199.043398c -4.61  -3.33
iter:  17 12:10:33  -199.042956c -5.25  -3.30
iter:  18 12:10:38  -199.041990c -5.61  -3.36
iter:  19 12:10:42  -199.041812c -5.74  -3.57
iter:  20 12:10:47  -199.041759c -5.78  -3.70
iter:  21 12:10:51  -199.041771c -6.28  -3.82
iter:  22 12:10:56  -199.041739c -6.22  -3.89
iter:  23 12:11:00  -199.041846c -6.27  -4.04c
iter:  24 12:11:05  -199.041746c -6.65  -3.90
iter:  25 12:11:09  -199.041747c -6.84  -4.17c
iter:  26 12:11:13  -199.041762c -7.24  -4.30c
iter:  27 12:11:18  -199.041765c -7.46c -4.40c

Converged after 27 iterations.

Dipole moment: (0.281246, 0.162377, -0.164594) |e|*Ang

Energy contributions relative to reference atoms: (reference = -3516703.949422)

Kinetic:       -149.021858
Potential:      +69.683893
External:        +0.000000
XC:            -116.737975
Entropy (-ST):   -1.623619
Local:           -2.154015
--------------------------
Free energy:   -199.853574
Extrapolated:  -199.041765

Showing only first 2 kpts
 Kpt  Band  Eigenvalues  Occupancy
  0   205      1.72995    1.15628
  0   206      1.76009    1.00684
  0   207      1.76718    0.97144
  0   208      1.79797    0.81946

  1   205      1.65844    1.47391
  1   206      1.68998    1.34293
  1   207      1.70633    1.26888
  1   208      1.74906    1.06194


Fermi level: 1.76146

No gap

Forces in eV/Ang:
  0 Rh   -0.07292   -0.04210    0.21666
  1 Rh    0.00000   -0.00867    0.08291
  2 Rh    0.07292   -0.04210    0.21666
  3 Rh   -0.00750    0.00433    0.08291
  4 Rh    0.00750    0.00433    0.08291
  5 Rh    0.00000   -0.02833    0.04428
  6 Rh    0.00000    0.08420    0.21666
  7 Rh   -0.02453    0.01416    0.04428
  8 Rh    0.02453    0.01416    0.04428
  9 Rh    0.00000   -0.12644   -0.18864
 10 Rh    0.01353    0.00781    0.01463
 11 Rh   -0.01353    0.00781    0.01463
 12 Rh    0.09912   -0.05722    0.17414
 13 Rh    0.00000   -0.01563    0.01463
 14 Rh   -0.09912   -0.05722    0.17414
 15 Rh    0.10950    0.06322   -0.18864
 16 Rh   -0.10950    0.06322   -0.18864
 17 Rh   -0.00000    0.11445    0.17414
 18 Rh    0.00000   -0.00000    0.46101
 19 Rh    0.23333    0.02578   -0.14986
 20 Rh   -0.23333    0.02578   -0.14986
 21 Rh    0.13899    0.18918   -0.14986
 22 Rh    0.00000    0.00000   -0.17221
 23 Rh   -0.13899    0.18918   -0.14986
 24 Rh   -0.09434   -0.21496   -0.14986
 25 Rh    0.09434   -0.21496   -0.14986
 26 Rh   -0.00000    0.00000   -0.14585
 27 O    -0.00000    0.00000    0.02251
 28 C    -0.00000    0.00000   -0.26006

System changes: positions 

Initializing position-dependent things.

Density initialized from wave functions
                                           
                                           
                                           
                                           
                                           
                                           
                                           
       O                                   
                                           
       C        Rh     Rh     Rh           
            Rh   RRh    RRh    Rh          
       Rh     Rh    Rh                     
             Rh    Rh     Rh               
        Rh     Rh   RRh    Rh    Rh        
                Rh    Rh                   
                             Rh            
           Rh     Rh    Rh                 
                                           
                                           
                                           
                                           

Positions:
   0 Rh     1.349165    0.778941    6.207604    ( 0.0000,  0.0000,  0.0000)
   1 Rh     4.072935    0.767846    6.183398    ( 0.0000,  0.0000,  0.0000)
   2 Rh     6.796705    0.778941    6.207604    ( 0.0000,  0.0000,  0.0000)
   3 Rh     2.701441    3.143342    6.183398    ( 0.0000,  0.0000,  0.0000)
   4 Rh     5.444429    3.143342    6.183398    ( 0.0000,  0.0000,  0.0000)
   5 Rh     8.145870    3.191191    6.132725    ( 0.0000,  0.0000,  0.0000)
   6 Rh     4.072935    5.496649    6.207604    ( 0.0000,  0.0000,  0.0000)
   7 Rh     6.836588    5.458935    6.132725    ( 0.0000,  0.0000,  0.0000)
   8 Rh     9.455152    5.458935    6.132725    ( 0.0000,  0.0000,  0.0000)
   9 Rh    -0.000000    1.524125    8.145563    ( 0.0000,  0.0000,  0.0000)
  10 Rh     2.715311    1.567685    8.222508    ( 0.0000,  0.0000,  0.0000)
  11 Rh     5.430560    1.567685    8.222508    ( 0.0000,  0.0000,  0.0000)
  12 Rh     1.370467    3.911781    8.246642    ( 0.0000,  0.0000,  0.0000)
  13 Rh     4.072935    3.919160    8.222508    ( 0.0000,  0.0000,  0.0000)
  14 Rh     6.775403    3.911781    8.246642    ( 0.0000,  0.0000,  0.0000)
  15 Rh     2.753004    6.292468    8.145563    ( 0.0000,  0.0000,  0.0000)
  16 Rh     5.392866    6.292468    8.145563    ( 0.0000,  0.0000,  0.0000)
  17 Rh     8.145870    6.285499    8.246642    ( 0.0000,  0.0000,  0.0000)
  18 Rh     0.000000   -0.000000   10.850781    ( 0.0000,  0.0000,  0.0000)
  19 Rh     2.839006   -0.002254   10.220753    ( 0.0000,  0.0000,  0.0000)
  20 Rh     5.306864   -0.002254   10.220753    ( 0.0000,  0.0000,  0.0000)
  21 Rh     1.417551    2.459778   10.220753    ( 0.0000,  0.0000,  0.0000)
  22 Rh     4.072935    2.351510   10.247923    ( 0.0000,  0.0000,  0.0000)
  23 Rh     6.728319    2.459778   10.220753    ( 0.0000,  0.0000,  0.0000)
  24 Rh     2.651480    4.597006   10.220753    ( 0.0000,  0.0000,  0.0000)
  25 Rh     5.494390    4.597006   10.220753    ( 0.0000,  0.0000,  0.0000)
  26 Rh     8.145870    4.703020   10.265607    ( 0.0000,  0.0000,  0.0000)
  27 O      0.000000    0.000000   13.540754    ( 0.0000,  0.0000,  0.0000)
  28 C     -0.000000   -0.000000   12.234852    ( 0.0000,  0.0000,  0.0000)

Unit cell:
           periodic     x           y           z      points  spacing
  1. axis:    yes    8.145870    0.000000    0.000000    40     0.1764
  2. axis:    yes    4.072935    7.054530    0.000000    40     0.1764
  3. axis:    no     0.000000    0.000000   16.434050    81     0.2029

  Lengths:   8.145870   8.145870  16.434050
  Angles:   90.000000  90.000000  60.000000

Effective grid spacing dv^(1/3) = 0.1939

     iter     time        total  log10-change:
                         energy  eigst   dens
iter:   1 12:11:24  -252.203295  -0.04
iter:   2 12:11:28  -199.079554  -0.66  -1.13
iter:   3 12:11:33  -203.908918  -1.46  -1.57
iter:   4 12:11:37  -193.701433  -1.87  -1.47
iter:   5 12:11:42  -191.531030  -2.13  -1.74
iter:   6 12:11:46  -190.983327  -2.15  -1.99
iter:   7 12:11:51  -190.850048  -3.10  -2.15
iter:   8 12:11:55  -190.733910  -2.89  -2.21
iter:   9 12:12:00  -190.700248c -2.93  -2.36
iter:  10 12:12:04  -190.709071c -3.40  -2.56
iter:  11 12:12:08  -190.663379c -3.83  -2.52
iter:  12 12:12:13  -190.645815c -3.91  -2.65
iter:  13 12:12:17  -190.640440c -4.08  -2.77
iter:  14 12:12:22  -190.637813c -3.94  -2.94
iter:  15 12:12:26  -190.637907c -4.65  -3.15
iter:  16 12:12:31  -190.638080c -4.94  -3.20
iter:  17 12:12:35  -190.639477c -4.98  -3.28
iter:  18 12:12:39  -190.638298c -5.23  -3.22
iter:  19 12:12:44  -190.638033c -5.38  -3.42
iter:  20 12:12:48  -190.638036c -5.62  -3.70
iter:  21 12:12:53  -190.638062c -6.05  -3.91
iter:  22 12:12:57  -190.638089c -6.36  -4.05c
iter:  23 12:13:02  -190.638212c -6.25  -4.18c
iter:  24 12:13:06  -190.638092c -6.69  -4.23c
iter:  25 12:13:10  -190.638184c -6.93  -4.10c
iter:  26 12:13:15  -190.638168c -7.19  -4.36c
iter:  27 12:13:19  -190.638152c -7.13  -4.53c
iter:  28 12:13:24  -190.638154c -7.46c -4.63c

Converged after 28 iterations.

Dipole moment: (0.524043, 0.302556, -0.888276) |e|*Ang

Energy contributions relative to reference atoms: (reference = -3516703.949422)

Kinetic:        +48.457011
Potential:      -90.962779
External:        +0.000000
XC:            -144.311635
Entropy (-ST):   -1.432300
Local:           -3.104601
--------------------------
Free energy:   -191.354304
Extrapolated:  -190.638154

Showing only first 2 kpts
 Kpt  Band  Eigenvalues  Occupancy
  0   205      1.42751    1.58713
  0   206      1.51233    1.24416
  0   207      1.54287    1.09618
  0   208      1.55445    1.03855

  1   205      1.37681    1.72909
  1   206      1.45623    1.48515
  1   207      1.49598    1.31936
  1   208      1.51512    1.23097


Fermi level: 1.56217

No gap

Forces in eV/Ang:
  0 Rh    0.42525    0.24552   -2.37041
  1 Rh   -0.00000    0.15036   -1.35898
  2 Rh   -0.42525    0.24552   -2.37041
  3 Rh    0.13021   -0.07518   -1.35898
  4 Rh   -0.13021   -0.07518   -1.35898
  5 Rh    0.00000   -0.20309   -0.81597
  6 Rh    0.00000   -0.49103   -2.37041
  7 Rh   -0.17588    0.10155   -0.81597
  8 Rh    0.17588    0.10155   -0.81597
  9 Rh    0.00000    0.57845    1.88921
 10 Rh   -0.12179   -0.07032   -0.29436
 11 Rh    0.12179   -0.07032   -0.29436
 12 Rh   -0.70826    0.40891   -1.68007
 13 Rh   -0.00000    0.14064   -0.29436
 14 Rh    0.70826    0.40891   -1.68007
 15 Rh   -0.50095   -0.28923    1.88921
 16 Rh    0.50095   -0.28923    1.88921
 17 Rh   -0.00000   -0.81782   -1.68007
 18 Rh    0.00000    0.00000  -38.80299
 19 Rh   -2.17644    0.03141    1.98545
 20 Rh    2.17644    0.03141    1.98545
 21 Rh   -1.06102   -1.90056    1.98545
 22 Rh    0.00000    0.00000    1.63562
 23 Rh    1.06102   -1.90056    1.98545
 24 Rh    1.11542    1.86915    1.98545
 25 Rh   -1.11542    1.86915    1.98545
 26 Rh   -0.00000    0.00000    1.24846
 27 O     0.00000   -0.00000   -5.65534
 28 C    -0.00000    0.00000   43.62990

System changes: positions 

Initializing position-dependent things.

Density initialized from wave functions
                                           
                                           
                                           
                                           
                                           
                                           
                                           
       O                                   
                Rh     Rh     Rh           
       C                                   
            Rh   RRh    RRh    Rh          
       Rh    RRh   RRh    Rh               
                                           
        Rh     Rh   RRh    Rh    Rh        
                                           
                Rh    Rh     Rh            
           Rh    Rh     Rh                 
                                           
                                           
                                           
                                           

Positions:
   0 Rh     1.357038    0.783486    6.060400    ( 0.0000,  0.0000,  0.0000)
   1 Rh     4.072935    0.780465    6.058551    ( 0.0000,  0.0000,  0.0000)
   2 Rh     6.788832    0.783486    6.060400    ( 0.0000,  0.0000,  0.0000)
   3 Rh     2.712370    3.137033    6.058551    ( 0.0000,  0.0000,  0.0000)
   4 Rh     5.433500    3.137033    6.058551    ( 0.0000,  0.0000,  0.0000)
   5 Rh     8.145870    3.153422    6.043846    ( 0.0000,  0.0000,  0.0000)
   6 Rh     4.072935    5.487558    6.060400    ( 0.0000,  0.0000,  0.0000)
   7 Rh     6.803878    5.477820    6.043846    ( 0.0000,  0.0000,  0.0000)
   8 Rh     9.487862    5.477820    6.043846    ( 0.0000,  0.0000,  0.0000)
   9 Rh    -0.000000    1.550692    8.209894    ( 0.0000,  0.0000,  0.0000)
  10 Rh     2.714073    1.566971    8.215458    ( 0.0000,  0.0000,  0.0000)
  11 Rh     5.431797    1.566971    8.215458    ( 0.0000,  0.0000,  0.0000)
  12 Rh     1.357507    3.919263    8.215504    ( 0.0000,  0.0000,  0.0000)
  13 Rh     4.072935    3.920589    8.215458    ( 0.0000,  0.0000,  0.0000)
  14 Rh     6.788363    3.919263    8.215504    ( 0.0000,  0.0000,  0.0000)
  15 Rh     2.729997    6.279185    8.209894    ( 0.0000,  0.0000,  0.0000)
  16 Rh     5.415874    6.279185    8.209894    ( 0.0000,  0.0000,  0.0000)
  17 Rh     8.145870    6.270534    8.215504    ( 0.0000,  0.0000,  0.0000)
  18 Rh     0.000000   -0.000000   10.600208    ( 0.0000,  0.0000,  0.0000)
  19 Rh     2.739938   -0.001795   10.365056    ( 0.0000,  0.0000,  0.0000)
  20 Rh     5.405932   -0.001795   10.365056    ( 0.0000,  0.0000,  0.0000)
  21 Rh     1.368414    2.373754   10.365056    ( 0.0000,  0.0000,  0.0000)
  22 Rh     4.072935    2.351510   10.372831    ( 0.0000,  0.0000,  0.0000)
  23 Rh     6.777456    2.373754   10.365056    ( 0.0000,  0.0000,  0.0000)
  24 Rh     2.701411    4.682572   10.365056    ( 0.0000,  0.0000,  0.0000)
  25 Rh     5.444459    4.682572   10.365056    ( 0.0000,  0.0000,  0.0000)
  26 Rh     8.145870    4.703020   10.376197    ( 0.0000,  0.0000,  0.0000)
  27 O      0.000000   -0.000000   13.545915    ( 0.0000,  0.0000,  0.0000)
  28 C     -0.000000   -0.000000   12.385084    ( 0.0000,  0.0000,  0.0000)

Unit cell:
           periodic     x           y           z      points  spacing
  1. axis:    yes    8.145870    0.000000    0.000000    40     0.1764
  2. axis:    yes    4.072935    7.054530    0.000000    40     0.1764
  3. axis:    no     0.000000    0.000000   16.434050    81     0.2029

  Lengths:   8.145870   8.145870  16.434050
  Angles:   90.000000  90.000000  60.000000

Effective grid spacing dv^(1/3) = 0.1939

     iter     time        total  log10-change:
                         energy  eigst   dens
iter:   1 12:13:30  -252.876755  -0.16
iter:   2 12:13:34  -207.519312  -0.91  -1.21
iter:   3 12:13:39  -224.134860  -1.03  -1.48
iter:   4 12:13:43  -201.889607  -1.70  -1.36
iter:   5 12:13:47  -200.497009  -2.45  -1.83
iter:   6 12:13:52  -199.530189  -2.14  -1.91
iter:   7 12:13:56  -199.314356  -2.60  -2.09
iter:   8 12:14:01  -199.202140  -3.03  -2.22
iter:   9 12:14:06  -199.133482c -3.09  -2.30
iter:  10 12:14:10  -199.116697c -3.29  -2.42
iter:  11 12:14:15  -199.089445c -3.79  -2.55
iter:  12 12:14:19  -199.076310c -4.06  -2.65
iter:  13 12:14:24  -199.073912c -4.31  -2.78
iter:  14 12:14:28  -199.072617c -4.42  -2.88
iter:  15 12:14:32  -199.071363c -4.65  -2.96
iter:  16 12:14:37  -199.071201c -4.87  -3.05
iter:  17 12:14:41  -199.072549c -5.23  -3.12
iter:  18 12:14:46  -199.069776c -4.86  -3.05
iter:  19 12:14:50  -199.069378c -5.31  -3.23
iter:  20 12:14:54  -199.069076c -5.53  -3.31
iter:  21 12:14:59  -199.068945c -5.67  -3.40
iter:  22 12:15:03  -199.068959c -5.85  -3.52
iter:  23 12:15:08  -199.069441c -6.12  -3.57
iter:  24 12:15:12  -199.069135c -5.77  -3.49
iter:  25 12:15:17  -199.069126c -6.41  -3.64
iter:  26 12:15:21  -199.069153c -6.25  -3.76
iter:  27 12:15:25  -199.069175c -6.21  -3.93
iter:  28 12:15:30  -199.069209c -6.56  -4.04c
iter:  29 12:15:34  -199.069254c -6.39  -4.03c
iter:  30 12:15:39  -199.069153c -6.73  -3.89
iter:  31 12:15:43  -199.069140c -7.45c -4.30c

Converged after 31 iterations.

Dipole moment: (0.216170, 0.124806, -0.225245) |e|*Ang

Energy contributions relative to reference atoms: (reference = -3516703.949422)

Kinetic:       -135.742734
Potential:      +58.745664
External:        +0.000000
XC:            -119.099746
Entropy (-ST):   -1.598444
Local:           -2.173102
--------------------------
Free energy:   -199.868362
Extrapolated:  -199.069140

Showing only first 2 kpts
 Kpt  Band  Eigenvalues  Occupancy
  0   205      1.70553    1.19867
  0   206      1.73497    1.05410
  0   207      1.75202    0.96894
  0   208      1.78933    0.78576

  1   205      1.63737    1.49465
  1   206      1.65354    1.43117
  1   207      1.69694    1.23956
  1   208      1.72711    1.09319


Fermi level: 1.74580

No gap

Forces in eV/Ang:
  0 Rh   -0.00488   -0.00282   -0.02784
  1 Rh   -0.00000    0.01328   -0.02303
  2 Rh    0.00488   -0.00282   -0.02784
  3 Rh    0.01150   -0.00664   -0.02303
  4 Rh   -0.01150   -0.00664   -0.02303
  5 Rh    0.00000    0.00509   -0.00721
  6 Rh    0.00000    0.00563   -0.02784
  7 Rh    0.00441   -0.00255   -0.00721
  8 Rh   -0.00441   -0.00255   -0.00721
  9 Rh    0.00000   -0.09873    0.10641
 10 Rh   -0.01807   -0.01043   -0.02083
 11 Rh    0.01807   -0.01043   -0.02083
 12 Rh   -0.01465    0.00846   -0.03403
 13 Rh    0.00000    0.02087   -0.02083
 14 Rh    0.01465    0.00846   -0.03403
 15 Rh    0.08550    0.04937    0.10641
 16 Rh   -0.08550    0.04937    0.10641
 17 Rh    0.00000   -0.01692   -0.03403
 18 Rh    0.00000    0.00000   -0.98677
 19 Rh   -0.11171    0.00455    0.03090
 20 Rh    0.11171    0.00455    0.03090
 21 Rh   -0.05191   -0.09902    0.03090
 22 Rh    0.00000    0.00000   -0.00048
 23 Rh    0.05191   -0.09902    0.03090
 24 Rh    0.05980    0.09447    0.03090
 25 Rh   -0.05980    0.09447    0.03090
 26 Rh    0.00000   -0.00000   -0.01394
 27 O     0.00000    0.00000    0.54072
 28 C     0.00000   -0.00000    0.48760

System changes: positions 

Initializing position-dependent things.

Density initialized from wave functions
                                           
                                           
                                           
                                           
                                           
                                           
                                           
       O                                   
                Rh     Rh     Rh           
       C                                   
            Rh   RRh    RRh    Rh          
       Rh    RRh   RRh    Rh               
                                           
        Rh     Rh   RRh    Rh    Rh        
                                           
                Rh    Rh     Rh            
           Rh    Rh     Rh                 
                                           
                                           
                                           
                                           

Positions:
   0 Rh     1.356555    0.783208    6.055805    ( 0.0000,  0.0000,  0.0000)
   1 Rh     4.072935    0.780877    6.053328    ( 0.0000,  0.0000,  0.0000)
   2 Rh     6.789315    0.783208    6.055805    ( 0.0000,  0.0000,  0.0000)
   3 Rh     2.712727    3.136827    6.053328    ( 0.0000,  0.0000,  0.0000)
   4 Rh     5.433143    3.136827    6.053328    ( 0.0000,  0.0000,  0.0000)
   5 Rh     8.145870    3.151859    6.039924    ( 0.0000,  0.0000,  0.0000)
   6 Rh     4.072935    5.488115    6.055805    ( 0.0000,  0.0000,  0.0000)
   7 Rh     6.802525    5.478601    6.039924    ( 0.0000,  0.0000,  0.0000)
   8 Rh     9.489215    5.478601    6.039924    ( 0.0000,  0.0000,  0.0000)
   9 Rh    -0.000000    1.549460    8.211371    ( 0.0000,  0.0000,  0.0000)
  10 Rh     2.713958    1.566904    8.215456    ( 0.0000,  0.0000,  0.0000)
  11 Rh     5.431912    1.566904    8.215456    ( 0.0000,  0.0000,  0.0000)
  12 Rh     1.357930    3.919019    8.216332    ( 0.0000,  0.0000,  0.0000)
  13 Rh     4.072935    3.920722    8.215456    ( 0.0000,  0.0000,  0.0000)
  14 Rh     6.787940    3.919019    8.216332    ( 0.0000,  0.0000,  0.0000)
  15 Rh     2.731063    6.279800    8.211371    ( 0.0000,  0.0000,  0.0000)
  16 Rh     5.414807    6.279800    8.211371    ( 0.0000,  0.0000,  0.0000)
  17 Rh     8.145870    6.271023    8.216332    ( 0.0000,  0.0000,  0.0000)
  18 Rh     0.000000    0.000000   10.568007    ( 0.0000,  0.0000,  0.0000)
  19 Rh     2.737527   -0.001401   10.370988    ( 0.0000,  0.0000,  0.0000)
  20 Rh     5.408344   -0.001401   10.370988    ( 0.0000,  0.0000,  0.0000)
  21 Rh     1.367550    2.371468   10.370988    ( 0.0000,  0.0000,  0.0000)
  22 Rh     4.072935    2.351510   10.377422    ( 0.0000,  0.0000,  0.0000)
  23 Rh     6.778320    2.371468   10.370988    ( 0.0000,  0.0000,  0.0000)
  24 Rh     2.702959    4.684463   10.370988    ( 0.0000,  0.0000,  0.0000)
  25 Rh     5.442912    4.684463   10.370988    ( 0.0000,  0.0000,  0.0000)
  26 Rh     8.145870    4.703020   10.380507    ( 0.0000,  0.0000,  0.0000)
  27 O      0.000000    0.000000   13.558884    ( 0.0000,  0.0000,  0.0000)
  28 C     -0.000000   -0.000000   12.395948    ( 0.0000,  0.0000,  0.0000)

Unit cell:
           periodic     x           y           z      points  spacing
  1. axis:    yes    8.145870    0.000000    0.000000    40     0.1764
  2. axis:    yes    4.072935    7.054530    0.000000    40     0.1764
  3. axis:    no     0.000000    0.000000   16.434050    81     0.2029

  Lengths:   8.145870   8.145870  16.434050
  Angles:   90.000000  90.000000  60.000000

Effective grid spacing dv^(1/3) = 0.1939

     iter     time        total  log10-change:
                         energy  eigst   dens
iter:   1 12:15:49  -199.193074  -2.76
iter:   2 12:15:54  -199.500982  -3.16  -2.47
iter:   3 12:15:58  -199.107209  -3.62  -2.23
iter:   4 12:16:03  -199.095314  -4.78  -2.88
iter:   5 12:16:07  -199.089694c -4.34  -3.14
iter:   6 12:16:12  -199.088810c -4.98  -3.34
iter:   7 12:16:16  -199.088653c -5.76  -3.46
iter:   8 12:16:20  -199.088389c -5.58  -3.53
iter:   9 12:16:25  -199.088786c -5.73  -3.76
iter:  10 12:16:29  -199.088586c -5.87  -3.66
iter:  11 12:16:34  -199.088482c -6.63  -3.82
iter:  12 12:16:38  -199.088492c -6.32  -4.00c
iter:  13 12:16:43  -199.088481c -6.64  -4.16c
iter:  14 12:16:47  -199.088474c -7.15  -4.35c
iter:  15 12:16:51  -199.088464c -7.49c -4.48c

Converged after 15 iterations.

Dipole moment: (0.200105, 0.115531, -0.191377) |e|*Ang

Energy contributions relative to reference atoms: (reference = -3516703.949422)

Kinetic:       -141.567495
Potential:      +63.521900
External:        +0.000000
XC:            -118.075607
Entropy (-ST):   -1.605051
Local:           -2.164737
--------------------------
Free energy:   -199.890989
Extrapolated:  -199.088464

Showing only first 2 kpts
 Kpt  Band  Eigenvalues  Occupancy
  0   205      1.71967    1.18321
  0   206      1.74792    1.04403
  0   207      1.76030    0.98217
  0   208      1.79929    0.79037

  1   205      1.65169    1.48170
  1   206      1.67034    1.40696
  1   207      1.70457    1.25504
  1   208      1.74213    1.07288


Fermi level: 1.75673

No gap

Forces in eV/Ang:
  0 Rh    0.00022    0.00013    0.01220
  1 Rh    0.00000    0.00492    0.02081
  2 Rh   -0.00022    0.00013    0.01220
  3 Rh    0.00426   -0.00246    0.02081
  4 Rh   -0.00426   -0.00246    0.02081
  5 Rh    0.00000    0.01443    0.03119
  6 Rh    0.00000   -0.00025    0.01220
  7 Rh    0.01250   -0.00722    0.03119
  8 Rh   -0.01250   -0.00722    0.03119
  9 Rh   -0.00000   -0.03861    0.06705
 10 Rh   -0.00781   -0.00451   -0.02213
 11 Rh    0.00781   -0.00451   -0.02213
 12 Rh   -0.01336    0.00771   -0.03177
 13 Rh    0.00000    0.00902   -0.02213
 14 Rh    0.01336    0.00771   -0.03177
 15 Rh    0.03344    0.01931    0.06705
 16 Rh   -0.03344    0.01931    0.06705
 17 Rh    0.00000   -0.01543   -0.03177
 18 Rh   -0.00000    0.00000    0.07892
 19 Rh   -0.05685   -0.00103   -0.03015
 20 Rh    0.05685   -0.00103   -0.03015
 21 Rh   -0.02931   -0.04872   -0.03015
 22 Rh    0.00000    0.00000   -0.04602
 23 Rh    0.02931   -0.04872   -0.03015
 24 Rh    0.02754    0.04975   -0.03015
 25 Rh   -0.02754    0.04975   -0.03015
 26 Rh    0.00000   -0.00000   -0.05278
 27 O    -0.00000    0.00000    0.07167
 28 C     0.00000   -0.00000   -0.00250

System changes: positions 

Initializing position-dependent things.

Density initialized from wave functions
                                           
                                           
                                           
                                           
                                           
                                           
                                           
       O                                   
                Rh     Rh     Rh           
       C                                   
            Rh   RRh    RRh    Rh          
       Rh    RRh   RRh    Rh               
                                           
        Rh     Rh   RRh    Rh    Rh        
                                           
                Rh    Rh     Rh            
           Rh    Rh     Rh                 
                                           
                                           
                                           
                                           

Positions:
   0 Rh     1.356347    0.783087    6.057469    ( 0.0000,  0.0000,  0.0000)
   1 Rh     4.072935    0.781242    6.055150    ( 0.0000,  0.0000,  0.0000)
   2 Rh     6.789523    0.783087    6.057469    ( 0.0000,  0.0000,  0.0000)
   3 Rh     2.713043    3.136644    6.055150    ( 0.0000,  0.0000,  0.0000)
   4 Rh     5.432828    3.136644    6.055150    ( 0.0000,  0.0000,  0.0000)
   5 Rh     8.145870    3.152449    6.041663    ( 0.0000,  0.0000,  0.0000)
   6 Rh     4.072935    5.488356    6.057469    ( 0.0000,  0.0000,  0.0000)
   7 Rh     6.803036    5.478306    6.041663    ( 0.0000,  0.0000,  0.0000)
   8 Rh     9.488704    5.478306    6.041663    ( 0.0000,  0.0000,  0.0000)
   9 Rh    -0.000000    1.546052    8.214568    ( 0.0000,  0.0000,  0.0000)
  10 Rh     2.713504    1.566642    8.214524    ( 0.0000,  0.0000,  0.0000)
  11 Rh     5.432366    1.566642    8.214524    ( 0.0000,  0.0000,  0.0000)
  12 Rh     1.357571    3.919226    8.214995    ( 0.0000,  0.0000,  0.0000)
  13 Rh     4.072935    3.921246    8.214524    ( 0.0000,  0.0000,  0.0000)
  14 Rh     6.788299    3.919226    8.214995    ( 0.0000,  0.0000,  0.0000)
  15 Rh     2.734015    6.281504    8.214568    ( 0.0000,  0.0000,  0.0000)
  16 Rh     5.411856    6.281504    8.214568    ( 0.0000,  0.0000,  0.0000)
  17 Rh     8.145870    6.270608    8.214995    ( 0.0000,  0.0000,  0.0000)
  18 Rh     0.000000    0.000000   10.572282    ( 0.0000,  0.0000,  0.0000)
  19 Rh     2.735146   -0.001415   10.368310    ( 0.0000,  0.0000,  0.0000)
  20 Rh     5.410724   -0.001415   10.368310    ( 0.0000,  0.0000,  0.0000)
  21 Rh     1.366348    2.369414   10.368310    ( 0.0000,  0.0000,  0.0000)
  22 Rh     4.072935    2.351510   10.374078    ( 0.0000,  0.0000,  0.0000)
  23 Rh     6.779522    2.369414   10.368310    ( 0.0000,  0.0000,  0.0000)
  24 Rh     2.704136    4.686532   10.368310    ( 0.0000,  0.0000,  0.0000)
  25 Rh     5.441734    4.686532   10.368310    ( 0.0000,  0.0000,  0.0000)
  26 Rh     8.145870    4.703020   10.376849    ( 0.0000,  0.0000,  0.0000)
  27 O      0.000000    0.000000   13.560445    ( 0.0000,  0.0000,  0.0000)
  28 C      0.000000   -0.000000   12.397932    ( 0.0000,  0.0000,  0.0000)

Unit cell:
           periodic     x           y           z      points  spacing
  1. axis:    yes    8.145870    0.000000    0.000000    40     0.1764
  2. axis:    yes    4.072935    7.054530    0.000000    40     0.1764
  3. axis:    no     0.000000    0.000000   16.434050    81     0.2029

  Lengths:   8.145870   8.145870  16.434050
  Angles:   90.000000  90.000000  60.000000

Effective grid spacing dv^(1/3) = 0.1939

     iter     time        total  log10-change:
                         energy  eigst   dens
iter:   1 12:16:57  -199.124946  -3.55
iter:   2 12:17:02  -199.180560  -3.71  -2.74
iter:   3 12:17:06  -199.099246c -4.21  -2.57
iter:   4 12:17:11  -199.093162c -5.46  -3.10
iter:   5 12:17:15  -199.092836c -5.64  -3.52
iter:   6 12:17:20  -199.092628c -5.66  -3.69
iter:   7 12:17:24  -199.092550c -5.99  -3.88
iter:   8 12:17:28  -199.092545c -6.57  -4.00c
iter:   9 12:17:33  -199.092523c -6.67  -4.09c
iter:  10 12:17:37  -199.092528c -7.06  -4.28c
iter:  11 12:17:42  -199.092542c -7.42c -4.37c

[...]
                         energy  eigst   dens
iter:   1 12:42:26  -199.100833  -4.52
iter:   2 12:42:30  -199.131924  -4.34  -3.12
iter:   3 12:42:34  -199.094872c -4.78  -2.75
iter:   4 12:42:39  -199.094746c -6.23  -3.87
iter:   5 12:42:43  -199.094686c -6.34  -3.99
iter:   6 12:42:47  -199.094663c -6.59  -4.23c
iter:   7 12:42:52  -199.094656c -7.31  -4.42c
iter:   8 12:42:56  -199.094658c -7.69c -4.51c

Converged after 8 iterations.

Dipole moment: (0.024985, 0.014425, -0.194443) |e|*Ang

Energy contributions relative to reference atoms: (reference = -3516703.949422)

Kinetic:       -139.973708
Potential:      +62.178704
External:        +0.000000
XC:            -118.340874
Entropy (-ST):   -1.602237
Local:           -2.157661
--------------------------
Free energy:   -199.895777
Extrapolated:  -199.094658

Showing only first 2 kpts
 Kpt  Band  Eigenvalues  Occupancy
  0   205      1.71876    1.19300
  0   206      1.74879    1.04525
  0   207      1.76153    0.98158
  0   208      1.80002    0.79221

  1   205      1.64972    1.49345
  1   206      1.66960    1.41465
  1   207      1.70715    1.24818
  1   208      1.74122    1.08296


Fermi level: 1.75785

No gap

Forces in eV/Ang:
  0 Rh    0.00054    0.00031    0.00171
  1 Rh   -0.00000   -0.00048    0.00241
  2 Rh   -0.00054    0.00031    0.00171
  3 Rh   -0.00042    0.00024    0.00241
  4 Rh    0.00042    0.00024    0.00241
  5 Rh    0.00000   -0.00219    0.00260
  6 Rh    0.00000   -0.00062    0.00171
  7 Rh   -0.00189    0.00109    0.00260
  8 Rh    0.00189    0.00109    0.00260
  9 Rh   -0.00000    0.00482   -0.00099
 10 Rh   -0.00041   -0.00024    0.00631
 11 Rh    0.00041   -0.00024    0.00631
 12 Rh   -0.00263    0.00152    0.00129
 13 Rh   -0.00000    0.00048    0.00631
 14 Rh    0.00263    0.00152    0.00129
 15 Rh   -0.00417   -0.00241   -0.00099
 16 Rh    0.00417   -0.00241   -0.00099
 17 Rh    0.00000   -0.00304    0.00129
 18 Rh   -0.00000    0.00000   -0.00219
 19 Rh   -0.00031   -0.00208   -0.00424
 20 Rh    0.00031   -0.00208   -0.00424
 21 Rh   -0.00195    0.00077   -0.00424
 22 Rh    0.00000    0.00000   -0.00080
 23 Rh    0.00195    0.00077   -0.00424
 24 Rh   -0.00164    0.00130   -0.00424
 25 Rh    0.00164    0.00130   -0.00424
 26 Rh    0.00000   -0.00000   -0.00467
 27 O    -0.00000   -0.00000   -0.00274
 28 C     0.00000    0.00000    0.02641

System changes: positions 

Initializing position-dependent things.

Density initialized from wave functions
                                           
                                           
                                           
                                           
                                           
                                           
                                           
       O                                   
                Rh     Rh     Rh           
       C                                   
            Rh   RRh    RRh    Rh          
       Rh    RRh   RRh    Rh               
                                           
        Rh     Rh   RRh    Rh    Rh        
                                           
                Rh    Rh     Rh            
           Rh    Rh     Rh                 
                                           
                                           
                                           
                                           

Positions:
   0 Rh     1.356660    0.783268    6.059123    ( 0.0000,  0.0000,  0.0000)
   1 Rh     4.072935    0.780097    6.051371    ( 0.0000,  0.0000,  0.0000)
   2 Rh     6.789210    0.783268    6.059123    ( 0.0000,  0.0000,  0.0000)
   3 Rh     2.712052    3.137217    6.051371    ( 0.0000,  0.0000,  0.0000)
   4 Rh     5.433818    3.137217    6.051371    ( 0.0000,  0.0000,  0.0000)
   5 Rh     8.145870    3.148974    6.043718    ( 0.0000,  0.0000,  0.0000)
   6 Rh     4.072935    5.487995    6.059123    ( 0.0000,  0.0000,  0.0000)
   7 Rh     6.800026    5.480044    6.043718    ( 0.0000,  0.0000,  0.0000)
   8 Rh     9.491714    5.480044    6.043718    ( 0.0000,  0.0000,  0.0000)
   9 Rh    -0.000000    1.544555    8.217832    ( 0.0000,  0.0000,  0.0000)
  10 Rh     2.709617    1.564398    8.215919    ( 0.0000,  0.0000,  0.0000)
  11 Rh     5.436253    1.564398    8.215919    ( 0.0000,  0.0000,  0.0000)
  12 Rh     1.356703    3.919728    8.212607    ( 0.0000,  0.0000,  0.0000)
  13 Rh     4.072935    3.925734    8.215919    ( 0.0000,  0.0000,  0.0000)
  14 Rh     6.789168    3.919728    8.212607    ( 0.0000,  0.0000,  0.0000)
  15 Rh     2.735311    6.282253    8.217832    ( 0.0000,  0.0000,  0.0000)
  16 Rh     5.410559    6.282253    8.217832    ( 0.0000,  0.0000,  0.0000)
  17 Rh     8.145870    6.269605    8.212607    ( 0.0000,  0.0000,  0.0000)
  18 Rh    -0.000000    0.000000   10.599744    ( 0.0000,  0.0000,  0.0000)
  19 Rh     2.732207   -0.005163   10.369099    ( 0.0000,  0.0000,  0.0000)
  20 Rh     5.413663   -0.005163   10.369099    ( 0.0000,  0.0000,  0.0000)
  21 Rh     1.361632    2.368743   10.369099    ( 0.0000,  0.0000,  0.0000)
  22 Rh     4.072935    2.351510   10.367195    ( 0.0000,  0.0000,  0.0000)
  23 Rh     6.784238    2.368743   10.369099    ( 0.0000,  0.0000,  0.0000)
  24 Rh     2.702360    4.690951   10.369099    ( 0.0000,  0.0000,  0.0000)
  25 Rh     5.443510    4.690951   10.369099    ( 0.0000,  0.0000,  0.0000)
  26 Rh     8.145870    4.703020   10.375592    ( 0.0000,  0.0000,  0.0000)
  27 O     -0.000000    0.000000   13.589187    ( 0.0000,  0.0000,  0.0000)
  28 C     -0.000000   -0.000000   12.429317    ( 0.0000,  0.0000,  0.0000)

Unit cell:
           periodic     x           y           z      points  spacing
  1. axis:    yes    8.145870    0.000000    0.000000    40     0.1764
  2. axis:    yes    4.072935    7.054530    0.000000    40     0.1764
  3. axis:    no     0.000000    0.000000   16.434050    81     0.2029

  Lengths:   8.145870   8.145870  16.434050
  Angles:   90.000000  90.000000  60.000000

Effective grid spacing dv^(1/3) = 0.1939

     iter     time        total  log10-change:
                         energy  eigst   dens
iter:   1 12:43:03  -199.167053  -3.08
iter:   2 12:43:07  -199.324754  -3.35  -2.64
iter:   3 12:43:11  -199.106309  -3.79  -2.36
iter:   4 12:43:16  -199.092475  -5.10  -2.91
iter:   5 12:43:20  -199.091604c -5.42  -3.32
iter:   6 12:43:24  -199.090864c -5.07  -3.43
iter:   7 12:43:29  -199.090710c -5.88  -3.62
iter:   8 12:43:33  -199.090532c -5.82  -3.70
iter:   9 12:43:38  -199.090576c -6.11  -3.96
iter:  10 12:43:42  -199.090481c -6.62  -3.93
iter:  11 12:43:46  -199.090480c -7.04  -4.12c
iter:  12 12:43:51  -199.090480c -6.78  -4.22c
iter:  13 12:43:55  -199.090482c -7.28  -4.39c
iter:  14 12:43:59  -199.090481c -7.40  -4.51c
iter:  15 12:44:04  -199.090481c -7.85c -4.71c

Converged after 15 iterations.

Dipole moment: (0.793290, 0.458006, -0.186776) |e|*Ang

Energy contributions relative to reference atoms: (reference = -3516703.949422)

Kinetic:       -140.829593
Potential:      +62.892320
External:        +0.000000
XC:            -118.190552
Entropy (-ST):   -1.604116
Local:           -2.160597
--------------------------
Free energy:   -199.892539
Extrapolated:  -199.090481

Showing only first 2 kpts
 Kpt  Band  Eigenvalues  Occupancy
  0   205      1.72153    1.19100
  0   206      1.75279    1.03705
  0   207      1.76453    0.97838
  0   208      1.80067    0.80039

  1   205      1.65252    1.49179
  1   206      1.67279    1.41120
  1   207      1.70956    1.24793
  1   208      1.74366    1.08251


Fermi level: 1.76020

No gap

Forces in eV/Ang:
  0 Rh   -0.00923   -0.00533   -0.00965
  1 Rh    0.00000    0.01995    0.04725
  2 Rh    0.00923   -0.00533   -0.00965
  3 Rh    0.01728   -0.00998    0.04725
  4 Rh   -0.01728   -0.00998    0.04725
  5 Rh    0.00000    0.02485    0.00780
  6 Rh   -0.00000    0.01066   -0.00965
  7 Rh    0.02152   -0.01242    0.00780
  8 Rh   -0.02152   -0.01242    0.00780
  9 Rh    0.00000   -0.01406    0.04057
 10 Rh    0.06067    0.03503   -0.04055
 11 Rh   -0.06067    0.03503   -0.04055
 12 Rh    0.01912   -0.01104    0.01017
 13 Rh    0.00000   -0.07005   -0.04055
 14 Rh   -0.01912   -0.01104    0.01017
 15 Rh    0.01217    0.00703    0.04057
 16 Rh   -0.01217    0.00703    0.04057
 17 Rh    0.00000    0.02207    0.01017
 18 Rh   -0.00000    0.00000   -0.01192
 19 Rh    0.00414    0.04290   -0.01131
 20 Rh   -0.00414    0.04290   -0.01131
 21 Rh    0.03922   -0.01786   -0.01131
 22 Rh   -0.00000    0.00000    0.01342
 23 Rh   -0.03922   -0.01786   -0.01131
 24 Rh    0.03508   -0.02504   -0.01131
 25 Rh   -0.03508   -0.02504   -0.01131
 26 Rh    0.00000    0.00000   -0.02407
 27 O     0.00000    0.00000    0.28550
 28 C     0.00000    0.00000   -0.36672

System changes: positions 

Initializing position-dependent things.

Density initialized from wave functions
                                           
                                           
                                           
                                           
                                           
                                           
                                           
       O                                   
                Rh     Rh     Rh           
       C                                   
            Rh   RRh    RRh    Rh          
       Rh    RRh   RRh    Rh               
                                           
        Rh     Rh   RRh    Rh    Rh        
                                           
                Rh    Rh     Rh            
           Rh    Rh     Rh                 
                                           
                                           
                                           
                                           

Positions:
   0 Rh     1.354516    0.782030    6.058529    ( 0.0000,  0.0000,  0.0000)
   1 Rh     4.072935    0.780750    6.052725    ( 0.0000,  0.0000,  0.0000)
   2 Rh     6.791354    0.782030    6.058529    ( 0.0000,  0.0000,  0.0000)
   3 Rh     2.712617    3.136890    6.052725    ( 0.0000,  0.0000,  0.0000)
   4 Rh     5.433253    3.136890    6.052725    ( 0.0000,  0.0000,  0.0000)
   5 Rh     8.145870    3.151401    6.045798    ( 0.0000,  0.0000,  0.0000)
   6 Rh     4.072935    5.490471    6.058529    ( 0.0000,  0.0000,  0.0000)
   7 Rh     6.802129    5.478830    6.045798    ( 0.0000,  0.0000,  0.0000)
   8 Rh     9.489612    5.478830    6.045798    ( 0.0000,  0.0000,  0.0000)
   9 Rh    -0.000000    1.544093    8.220887    ( 0.0000,  0.0000,  0.0000)
  10 Rh     2.713609    1.566703    8.209693    ( 0.0000,  0.0000,  0.0000)
  11 Rh     5.432261    1.566703    8.209693    ( 0.0000,  0.0000,  0.0000)
  12 Rh     1.358002    3.918978    8.214417    ( 0.0000,  0.0000,  0.0000)
  13 Rh     4.072935    3.921125    8.209693    ( 0.0000,  0.0000,  0.0000)
  14 Rh     6.787868    3.918978    8.214417    ( 0.0000,  0.0000,  0.0000)
  15 Rh     2.735711    6.282484    8.220887    ( 0.0000,  0.0000,  0.0000)
  16 Rh     5.410159    6.282484    8.220887    ( 0.0000,  0.0000,  0.0000)
  17 Rh     8.145870    6.271106    8.214417    ( 0.0000,  0.0000,  0.0000)
  18 Rh     0.000000    0.000000   10.590052    ( 0.0000,  0.0000,  0.0000)
  19 Rh     2.732805   -0.000011   10.367472    ( 0.0000,  0.0000,  0.0000)
  20 Rh     5.413065   -0.000011   10.367472    ( 0.0000,  0.0000,  0.0000)
  21 Rh     1.366393    2.366684   10.367472    ( 0.0000,  0.0000,  0.0000)
  22 Rh     4.072935    2.351510   10.368245    ( 0.0000,  0.0000,  0.0000)
  23 Rh     6.779477    2.366684   10.367472    ( 0.0000,  0.0000,  0.0000)
  24 Rh     2.706523    4.687857   10.367472    ( 0.0000,  0.0000,  0.0000)
  25 Rh     5.439347    4.687857   10.367472    ( 0.0000,  0.0000,  0.0000)
  26 Rh     8.145870    4.703020   10.373081    ( 0.0000,  0.0000,  0.0000)
  27 O      0.000000    0.000000   13.580135    ( 0.0000,  0.0000,  0.0000)
  28 C     -0.000000   -0.000000   12.417137    ( 0.0000,  0.0000,  0.0000)

Unit cell:
           periodic     x           y           z      points  spacing
  1. axis:    yes    8.145870    0.000000    0.000000    40     0.1764
  2. axis:    yes    4.072935    7.054530    0.000000    40     0.1764
  3. axis:    no     0.000000    0.000000   16.434050    81     0.2029

  Lengths:   8.145870   8.145870  16.434050
  Angles:   90.000000  90.000000  60.000000

Effective grid spacing dv^(1/3) = 0.1939

     iter     time        total  log10-change:
                         energy  eigst   dens
iter:   1 12:44:11  -199.141325  -3.12
iter:   2 12:44:15  -199.136989  -3.67  -2.72
iter:   3 12:44:19  -199.126870c -4.13  -2.72
iter:   4 12:44:24  -199.096256c -4.81  -2.76
iter:   5 12:44:28  -199.095346c -5.36  -3.35
iter:   6 12:44:32  -199.094867c -5.24  -3.48
iter:   7 12:44:37  -199.094797c -5.82  -3.66
iter:   8 12:44:41  -199.094737c -6.14  -3.77
iter:   9 12:44:46  -199.094757c -6.22  -3.92
iter:  10 12:44:50  -199.094835c -6.60  -4.01c
iter:  11 12:44:54  -199.094724c -6.70  -3.91
iter:  12 12:44:59  -199.094716c -7.18  -4.20c
iter:  13 12:45:03  -199.094706c -7.15  -4.30c
iter:  14 12:45:07  -199.094693c -7.24  -4.45c
iter:  15 12:45:12  -199.094693c -7.50c -4.56c

Converged after 15 iterations.

Dipole moment: (0.067993, 0.039256, -0.194948) |e|*Ang

Energy contributions relative to reference atoms: (reference = -3516703.949422)

Kinetic:       -140.039824
Potential:      +62.251222
External:        +0.000000
XC:            -118.330732
Entropy (-ST):   -1.602175
Local:           -2.174271
--------------------------
Free energy:   -199.895781
Extrapolated:  -199.094693

Showing only first 2 kpts
 Kpt  Band  Eigenvalues  Occupancy
  0   205      1.71870    1.19345
  0   206      1.74885    1.04513
  0   207      1.76160    0.98141
  0   208      1.79999    0.79252

  1   205      1.64978    1.49338
  1   206      1.66953    1.41511
  1   207      1.70723    1.24800
  1   208      1.74115    1.08345


Fermi level: 1.75788

No gap

Forces in eV/Ang:
  0 Rh    0.00116    0.00067   -0.00216
  1 Rh    0.00000    0.00152    0.00319
  2 Rh   -0.00116    0.00067   -0.00216
  3 Rh    0.00132   -0.00076    0.00319
  4 Rh   -0.00132   -0.00076    0.00319
  5 Rh    0.00000   -0.00467   -0.00013
  6 Rh   -0.00000   -0.00134   -0.00216
  7 Rh   -0.00404    0.00233   -0.00013
  8 Rh    0.00404    0.00233   -0.00013
  9 Rh    0.00000   -0.00021    0.00553
 10 Rh   -0.00168   -0.00097    0.00895
 11 Rh    0.00168   -0.00097    0.00895
 12 Rh    0.00224   -0.00130   -0.00031
 13 Rh   -0.00000    0.00194    0.00895
 14 Rh   -0.00224   -0.00130   -0.00031
 15 Rh    0.00019    0.00011    0.00553
 16 Rh   -0.00019    0.00011    0.00553
 17 Rh    0.00000    0.00259   -0.00031
 18 Rh    0.00000    0.00000   -0.00334
 19 Rh   -0.00172    0.00295   -0.00088
 20 Rh    0.00172    0.00295   -0.00088
 21 Rh    0.00169   -0.00296   -0.00088
 22 Rh    0.00000    0.00000   -0.00168
 23 Rh   -0.00169   -0.00296   -0.00088
 24 Rh    0.00341    0.00001   -0.00088
 25 Rh   -0.00341    0.00001   -0.00088
 26 Rh   -0.00000    0.00000   -0.00426
 27 O     0.00000   -0.00000    0.00655
 28 C     0.00000    0.00000    0.00883

Timing:                                      incl.     excl.
-------------------------------------------------------------------
Density initialized from wave functions:     8.959     7.484   0.3% |
 Symmetrize density:                         1.475     1.475   0.1% |
Forces:                                     28.767    28.767   1.0% |
Hamiltonian:                                 5.941     0.093   0.0% |
 Atomic:                                     0.007     0.007   0.0% |
  XC Correction:                             0.000     0.000   0.0% |
 Calculate atomic Hamiltonians:              2.113     2.113   0.1% |
 Communicate:                                2.467     2.467   0.1% |
 Initialize Hamiltonian:                     0.000     0.000   0.0% |
 Poisson:                                    0.015     0.015   0.0% |
 XC 3D grid:                                 1.245     1.245   0.0% |
LCAO initialization:                         9.898     0.317   0.0% |
 LCAO eigensolver:                           0.896     0.001   0.0% |
  Calculate projections:                     0.000     0.000   0.0% |
  DenseAtomicCorrection:                     0.000     0.000   0.0% |
  Distribute overlap matrix:                 0.586     0.586   0.0% |
  Orbital Layouts:                           0.246     0.246   0.0% |
  Potential matrix:                          0.026     0.026   0.0% |
  Sum over cells:                            0.036     0.036   0.0% |
 LCAO to grid:                               8.341     8.341   0.3% |
 Set positions (LCAO WFS):                   0.344     0.274   0.0% |
  Basic WFS set positions:                   0.004     0.004   0.0% |
  Basis functions set positions:             0.000     0.000   0.0% |
  P tci:                                     0.001     0.001   0.0% |
  ST tci:                                    0.033     0.033   0.0% |
  mktci:                                     0.033     0.033   0.0% |
PWDescriptor:                                0.404     0.404   0.0% |
Redistribute:                                0.027     0.027   0.0% |
SCF-cycle:                                2847.124    21.767   0.7% |
 Davidson:                                2528.005   378.164  13.0% |----|
  Apply H:                                 173.990   168.569   5.8% |-|
   HMM T:                                    5.422     5.422   0.2% |
  Subspace diag:                           321.668     0.246   0.0% |
   calc_h_matrix:                          208.809    38.848   1.3% ||
    Apply H:                               169.960   164.572   5.6% |-|
     HMM T:                                  5.389     5.389   0.2% |
   diagonalize:                             53.641    53.641   1.8% ||
   rotate_psi:                              58.971    58.971   2.0% ||
  calc. matrices:                          608.122   268.086   9.2% |---|
   Apply H:                                340.036   329.375  11.3% |----|
    HMM T:                                  10.661    10.661   0.4% |
  diagonalize:                             919.375   919.375  31.5% |------------|
  rotate_psi:                              126.686   126.686   4.3% |-|
 Density:                                  174.974     0.014   0.0% |
  Atomic density matrices:                   3.222     3.222   0.1% |
  Mix:                                      54.504    54.504   1.9% ||
  Multipole moments:                         0.124     0.124   0.0% |
  Pseudo density:                          117.110    87.149   3.0% ||
   Symmetrize density:                      29.961    29.961   1.0% |
 Hamiltonian:                              115.176     1.885   0.1% |
  Atomic:                                    0.187     0.185   0.0% |
   XC Correction:                            0.002     0.002   0.0% |
  Calculate atomic Hamiltonians:            41.562    41.562   1.4% ||
  Communicate:                              46.342    46.342   1.6% ||
  Poisson:                                   0.362     0.362   0.0% |
  XC 3D grid:                               24.838    24.838   0.9% |
 Orthonormalize:                             7.201     0.018   0.0% |
  calc_s_matrix:                             0.862     0.862   0.0% |
  inverse-cholesky:                          1.134     1.134   0.0% |
  projections:                               3.695     3.695   0.1% |
  rotate_psi_s:                              1.493     1.493   0.1% |
Set symmetry:                                0.003     0.003   0.0% |
Other:                                      17.855    17.855   0.6% |
-------------------------------------------------------------------
Total:                                              2918.977 100.0%

Memory usage: 517.69 MiB
Date: Fri Mar 10 12:45:14 2023
