
  ___ ___ ___ _ _ _  
 |   |   |_  | | | | 
 | | | | | . | | | | 
 |__ |  _|___|_____|  22.8.0
 |___|_|             

User:   gotols@vera44-4
Date:   Wed Feb 22 19:22:04 2023
Arch:   x86_64
Pid:    442647
CWD:    /cephyr/users/gotols/Vera/TIF320-Computational-materials-and-molecular-physics-Assignments
Python: 3.10.4
gpaw:   /apps/Arch/software/GPAW/22.8.0-foss-2022a/lib/python3.10/site-packages/gpaw
_gpaw:  /apps/Arch/software/GPAW/22.8.0-foss-2022a/lib/python3.10/site-packages/
        _gpaw.cpython-310-x86_64-linux-gnu.so
ase:    /apps/Arch/software/ASE/3.22.1-foss-2022a/lib/python3.10/site-packages/ase (version 3.22.1)
numpy:  /apps/Arch/software/SciPy-bundle/2022.05-foss-2022a/lib/python3.10/site-packages/numpy (version 1.22.3)
scipy:  /apps/Arch/software/SciPy-bundle/2022.05-foss-2022a/lib/python3.10/site-packages/scipy (version 1.8.1)
libxc:  5.2.3
units:  Angstrom and eV
cores: 16
OpenMP: False
OMP_NUM_THREADS: 1

Input parameters:
  kpts: [4 4 1]
  mode: {ecut: 450.00000000000006,
         name: pw}
  xc: PBE

System changes: positions, numbers, cell, pbc, initial_charges, initial_magmoms 

Initialize ...

species:
  Pt:
    name: Platinum
    id: 5ed695806aff0c961dba1a84acd7f4b2
    Z: 78.0
    valence: 16
    core: 62
    charge: 0.0
    file: /apps/Common/software/GPAW-setups/0.9.20000/Pt.PBE.gz
    compensation charges: {type: gauss,
                           rc: 0.41,
                           lmax: 2}
    cutoffs: {filter: 2.26,
              core: 2.26}
    valence states:
      #              energy  rcut
      - 6s(1.00)    -5.628   1.307
      - 5p(6.00)   -56.051   1.371
      - 6p(0.00)    -0.845   1.371
      - 5d(9.00)    -6.153   1.307
      -  s          21.583   1.307
      -  d          21.058   1.307
  
    # Using partial waves for Pt as LCAO basis

  O:
    name: Oxygen
    id: 32ecd46bf208036f09c70b0ec9a88b78
    Z: 8.0
    valence: 6
    core: 2
    charge: 0.0
    file: /apps/Common/software/GPAW-setups/0.9.20000/O.PBE.gz
    compensation charges: {type: gauss,
                           rc: 0.21,
                           lmax: 2}
    cutoffs: {filter: 1.17,
              core: 0.83}
    valence states:
      #              energy  rcut
      - 2s(2.00)   -23.961   0.688
      - 2p(4.00)    -9.029   0.598
      -  s           3.251   0.688
      -  p          18.182   0.598
      -  d           0.000   0.619
  
    # Using partial waves for O as LCAO basis

Reference energy: -13512175.647022  # eV

Spin-paired calculation

Convergence criteria:
 Maximum [total energy] change in last 3 cyles: 0.0005 eV / electron
 Maximum integral of absolute [dens]ity change: 0.0001 electrons / valence electron
 Maximum integral of absolute [eigenst]ate change: 4e-08 eV^2 / valence electron
 Maximum number of scf [iter]ations: 333
 (Square brackets indicate name in SCF output, whereas a 'c' in
 the SCF output indicates the quantity has converged.)

Symmetries present (total): 1

  ( 1  0  0)
  ( 0  1  0)
  ( 0  0  1)

16 k-points: 4 x 4 x 1 Monkhorst-Pack grid
8 k-points in the irreducible part of the Brillouin zone
       k-points in crystal coordinates                weights
   0:     0.12500000   -0.37500000    0.00000000          2/16
   1:     0.12500000   -0.12500000    0.00000000          2/16
   2:     0.12500000    0.12500000    0.00000000          2/16
   3:     0.12500000    0.37500000    0.00000000          2/16
   4:     0.37500000   -0.37500000    0.00000000          2/16
   5:     0.37500000   -0.12500000    0.00000000          2/16
   6:     0.37500000    0.12500000    0.00000000          2/16
   7:     0.37500000    0.37500000    0.00000000          2/16

Wave functions: Plane wave expansion
  Cutoff energy: 450.000 eV
  Number of coefficients (min, max): 22059, 22107
  Pulay-stress correction: 0.000000 eV/Ang^3 (de/decut=0.000000)
  Using FFTW library
  ScaLapack parameters: grid=1x1, blocksize=None
  Wavefunction extrapolation:
    Improved wavefunction reuse through dual PAW basis 

Occupation numbers: Fermi-Dirac:
  width: 0.1000  # eV
 

Eigensolver
   Davidson(niter=2) 

Densities:
  Coarse grid: 42*42*84 grid
  Fine grid: 84*84*168 grid
  Total Charge: 0.000000 

Density mixing:
  Method: separate
  Backend: pulay
  Linear mixing parameter: 0.05
  old densities: 5
  Damping of long wavelength oscillations: 50 

Hamiltonian:
  XC and Coulomb potentials evaluated on a 84*84*168 grid
  Using the PBE Exchange-Correlation functional
  External potential:
    NoExternalPotential
 

XC parameters: PBE with 2 nearest neighbor stencil

Memory estimate:
  Process memory now: 885.53 MiB
  Calculator: 246.23 MiB
    Density: 34.99 MiB
      Arrays: 14.70 MiB
      Localized functions: 14.64 MiB
      Mixer: 5.65 MiB
    Hamiltonian: 9.97 MiB
      Arrays: 9.61 MiB
      XC: 0.00 MiB
      Poisson: 0.00 MiB
      vbar: 0.36 MiB
    Wavefunctions: 201.27 MiB
      Arrays psit_nG: 90.07 MiB
      Eigensolver: 102.64 MiB
      Projections: 1.02 MiB
      Projectors: 1.69 MiB
      PW-descriptor: 5.86 MiB

Total number of cores used: 16
Parallelization over k-points: 8
Domain decomposition: 1 x 1 x 2

Number of atoms: 28
Number of atomic orbitals: 328
Number of bands in calculation: 267
Number of valence electrons: 438
Bands to converge: occupied

... initialized

Initializing position-dependent things.

Density initialized from atomic densities
Creating initial wave functions:
  267 bands from LCAO basis set

                                            
                                            
                                            
                                            
                                            
                                            
                                            
           O     Pt     Pt     Pt           
            Pt     Pt     Pt                
                  Pt     Pt    Pt           
       Pt    PPt    PPt    Pt               
                                            
        Pt     Pt    PPt    Pt    Pt        
                                            
                Pt     Pt     Pt            
           Pt     Pt     Pt                 
                                            
                                            
                                            
                                            

Positions:
   0 Pt     1.403607    0.810373    6.000000    ( 0.0000,  0.0000,  0.0000)
   1 Pt     4.210821    0.810373    6.000000    ( 0.0000,  0.0000,  0.0000)
   2 Pt     7.018035    0.810373    6.000000    ( 0.0000,  0.0000,  0.0000)
   3 Pt     2.807214    3.241491    6.000000    ( 0.0000,  0.0000,  0.0000)
   4 Pt     5.614428    3.241491    6.000000    ( 0.0000,  0.0000,  0.0000)
   5 Pt     8.421642    3.241491    6.000000    ( 0.0000,  0.0000,  0.0000)
   6 Pt     4.210821    5.672610    6.000000    ( 0.0000,  0.0000,  0.0000)
   7 Pt     7.018035    5.672610    6.000000    ( 0.0000,  0.0000,  0.0000)
   8 Pt     9.825249    5.672610    6.000000    ( 0.0000,  0.0000,  0.0000)
   9 Pt    -0.000000    1.620746    8.292081    ( 0.0000,  0.0000,  0.0000)
  10 Pt     2.807214    1.620746    8.292081    ( 0.0000,  0.0000,  0.0000)
  11 Pt     5.614428    1.620746    8.292081    ( 0.0000,  0.0000,  0.0000)
  12 Pt     1.403607    4.051864    8.292081    ( 0.0000,  0.0000,  0.0000)
  13 Pt     4.210821    4.051864    8.292081    ( 0.0000,  0.0000,  0.0000)
  14 Pt     7.018035    4.051864    8.292081    ( 0.0000,  0.0000,  0.0000)
  15 Pt     2.807214    6.482983    8.292081    ( 0.0000,  0.0000,  0.0000)
  16 Pt     5.614428    6.482983    8.292081    ( 0.0000,  0.0000,  0.0000)
  17 Pt     8.421642    6.482983    8.292081    ( 0.0000,  0.0000,  0.0000)
  18 Pt     0.000000    0.000000   10.584161    ( 0.0000,  0.0000,  0.0000)
  19 Pt     2.807214    0.000000   10.584161    ( 0.0000,  0.0000,  0.0000)
  20 Pt     5.614428    0.000000   10.584161    ( 0.0000,  0.0000,  0.0000)
  21 Pt     1.403607    2.431119   10.584161    ( 0.0000,  0.0000,  0.0000)
  22 Pt     4.210821    2.431119   10.584161    ( 0.0000,  0.0000,  0.0000)
  23 Pt     7.018035    2.431119   10.584161    ( 0.0000,  0.0000,  0.0000)
  24 Pt     2.807214    4.862237   10.584161    ( 0.0000,  0.0000,  0.0000)
  25 Pt     5.614428    4.862237   10.584161    ( 0.0000,  0.0000,  0.0000)
  26 Pt     8.421642    4.862237   10.584161    ( 0.0000,  0.0000,  0.0000)
  27 O      1.403607    0.000000   12.584161    ( 0.0000,  0.0000,  0.0000)

Unit cell:
           periodic     x           y           z      points  spacing
  1. axis:    yes    8.421642    0.000000    0.000000    42     0.1737
  2. axis:    yes    4.210821    7.293356    0.000000    42     0.1737
  3. axis:    no     0.000000    0.000000   16.584161    84     0.1974

  Lengths:   8.421642   8.421642  16.584161
  Angles:   90.000000  90.000000  60.000000

Effective grid spacing dv^(1/3) = 0.1901

     iter     time        total  log10-change:
                         energy  eigst   dens
iter:   1 19:22:29  -179.756010
iter:   2 19:22:38  -175.256553  -1.23  -1.39
iter:   3 19:22:46  -170.314315  -1.71  -1.44
iter:   4 19:22:54  -170.893973  -2.09  -1.55
iter:   5 19:23:03  -169.084195  -2.39  -1.54
iter:   6 19:23:11  -167.226639  -1.44  -1.60
iter:   7 19:23:20  -165.322887  -2.80  -1.93
iter:   8 19:23:28  -165.364725  -3.18  -2.09
iter:   9 19:23:37  -165.308832c -3.30  -2.15
iter:  10 19:23:45  -165.259149c -3.16  -2.27
iter:  11 19:23:54  -165.273733c -3.45  -2.45
iter:  12 19:24:02  -165.236755c -4.05  -2.55
iter:  13 19:24:11  -165.238012c -4.16  -2.68
iter:  14 19:24:19  -165.230128c -4.19  -2.74
iter:  15 19:24:28  -165.227890c -3.97  -2.87
iter:  16 19:24:36  -165.227281c -4.60  -3.06
iter:  17 19:24:45  -165.223800c -4.69  -3.13
iter:  18 19:24:53  -165.225138c -5.27  -3.41
iter:  19 19:25:02  -165.224456c -5.91  -3.41
iter:  20 19:25:10  -165.224625c -5.84  -3.51
iter:  21 19:25:18  -165.224770c -6.28  -3.63
iter:  22 19:25:27  -165.224820c -5.60  -3.69
iter:  23 19:25:35  -165.225161c -6.22  -3.83
iter:  24 19:25:44  -165.225233c -6.44  -3.85
iter:  25 19:25:52  -165.224919c -6.47  -3.88
iter:  26 19:26:01  -165.224752c -6.66  -4.02c
iter:  27 19:26:09  -165.224706c -6.47  -4.11c
iter:  28 19:26:18  -165.224925c -6.78  -4.24c
iter:  29 19:26:26  -165.224914c -7.39  -4.72c
iter:  30 19:26:35  -165.224935c -7.58c -4.78c

Converged after 30 iterations.

Dipole moment: (0.069001, -0.106806, -0.485412) |e|*Ang

Energy contributions relative to reference atoms: (reference = -13512175.647022)

Kinetic:       -324.002995
Potential:     +250.459589
External:        +0.000000
XC:             -76.141025
Entropy (-ST):   -1.837956
Local:          -14.621526
--------------------------
Free energy:   -166.143913
Extrapolated:  -165.224935

Showing only first 2 kpts
 Kpt  Band  Eigenvalues  Occupancy
  0   217      1.22249    1.05949
  0   218      1.25608    0.89208
  0   219      1.34828    0.48509
  0   220      1.39397    0.33718

  1   217      1.15864    1.36167
  1   218      1.17353    1.29533
  1   219      1.18627    1.23612
  1   220      1.20405    1.15063


Fermi level: 1.23441

No gap

Forces in eV/Ang:
  0 Pt   -0.00700   -0.01412   -0.00746
  1 Pt    0.02355    0.02014   -0.02602
  2 Pt   -0.02053    0.02004   -0.02997
  3 Pt    0.02223    0.00327   -0.05126
  4 Pt   -0.00140   -0.01861   -0.07678
  5 Pt   -0.02656    0.00288   -0.05769
  6 Pt    0.03305   -0.01926   -0.02741
  7 Pt   -0.03240   -0.02318   -0.02522
  8 Pt   -0.00551    0.00010   -0.12585
  9 Pt   -0.04925   -0.01671   -0.01750
 10 Pt    0.04302   -0.00927   -0.01018
 11 Pt    0.00378    0.02007   -0.02426
 12 Pt    0.00071   -0.04723   -0.00377
 13 Pt    0.02891   -0.01404    0.00193
 14 Pt   -0.02722   -0.01613    0.00297
 15 Pt    0.06310    0.11693    0.27195
 16 Pt   -0.00530    0.01368   -0.21982
 17 Pt   -0.05936    0.11712    0.28733
 18 Pt    0.61135   -0.18056    1.65576
 19 Pt   -0.60208   -0.17122    1.65013
 20 Pt    0.00163   -0.01506    0.00384
 21 Pt    0.00688    0.28952    0.10279
 22 Pt    0.09036    0.09878    0.02759
 23 Pt   -0.09550    0.10061    0.02230
 24 Pt   -0.08814   -0.08121    0.02186
 25 Pt    0.00036   -0.17079    0.11143
 26 Pt    0.09267   -0.07890    0.02064
 27 O    -0.00134    0.07315   -3.47856

System changes: positions 

Initializing position-dependent things.

Density initialized from wave functions
                                            
                                            
                                            
                                            
                                            
                                            
                                            
           O     Pt     Pt     Pt           
            Pt     Pt     Pt                
       Pt     Pt  Pt Pt  Pt    Pt           
             Pt     Pt     Pt               
        Pt     Pt     Pt                    
                     Pt     Pt    Pt        
                Pt     Pt     Pt            
                                            
           Pt     Pt     Pt                 
                                            
                                            
                                            
                                            

Positions:
   0 Pt     1.403607    0.810373    6.000000    ( 0.0000,  0.0000,  0.0000)
   1 Pt     4.210821    0.810373    6.000000    ( 0.0000,  0.0000,  0.0000)
   2 Pt     7.018035    0.810373    6.000000    ( 0.0000,  0.0000,  0.0000)
   3 Pt     2.807214    3.241491    6.000000    ( 0.0000,  0.0000,  0.0000)
   4 Pt     5.614428    3.241491    6.000000    ( 0.0000,  0.0000,  0.0000)
   5 Pt     8.421642    3.241491    6.000000    ( 0.0000,  0.0000,  0.0000)
   6 Pt     4.210821    5.672610    6.000000    ( 0.0000,  0.0000,  0.0000)
   7 Pt     7.018035    5.672610    6.000000    ( 0.0000,  0.0000,  0.0000)
   8 Pt     9.825249    5.672610    6.000000    ( 0.0000,  0.0000,  0.0000)
   9 Pt    -0.000000    1.620746    8.292081    ( 0.0000,  0.0000,  0.0000)
  10 Pt     2.807214    1.620746    8.292081    ( 0.0000,  0.0000,  0.0000)
  11 Pt     5.614428    1.620746    8.292081    ( 0.0000,  0.0000,  0.0000)
  12 Pt     1.403607    4.051864    8.292081    ( 0.0000,  0.0000,  0.0000)
  13 Pt     4.210821    4.051864    8.292081    ( 0.0000,  0.0000,  0.0000)
  14 Pt     7.018035    4.051864    8.292081    ( 0.0000,  0.0000,  0.0000)
  15 Pt     2.807214    6.482983    8.292081    ( 0.0000,  0.0000,  0.0000)
  16 Pt     5.614428    6.482983    8.292081    ( 0.0000,  0.0000,  0.0000)
  17 Pt     8.421642    6.482983    8.292081    ( 0.0000,  0.0000,  0.0000)
  18 Pt     0.000000    0.000000   10.584161    ( 0.0000,  0.0000,  0.0000)
  19 Pt     2.807214    0.000000   10.584161    ( 0.0000,  0.0000,  0.0000)
  20 Pt     5.614428    0.000000   10.584161    ( 0.0000,  0.0000,  0.0000)
  21 Pt     1.403607    2.431119   10.584161    ( 0.0000,  0.0000,  0.0000)
  22 Pt     4.210821    2.431119   10.584161    ( 0.0000,  0.0000,  0.0000)
  23 Pt     7.018035    2.431119   10.584161    ( 0.0000,  0.0000,  0.0000)
  24 Pt     2.807214    4.862237   10.584161    ( 0.0000,  0.0000,  0.0000)
  25 Pt     5.614428    4.862237   10.584161    ( 0.0000,  0.0000,  0.0000)
  26 Pt     8.421642    4.862237   10.584161    ( 0.0000,  0.0000,  0.0000)
  27 O      1.403453    0.008410   12.184250    ( 0.0000,  0.0000,  0.0000)

Unit cell:
           periodic     x           y           z      points  spacing
  1. axis:    yes    8.421642    0.000000    0.000000    42     0.1737
  2. axis:    yes    4.210821    7.293356    0.000000    42     0.1737
  3. axis:    no     0.000000    0.000000   16.584161    84     0.1974

  Lengths:   8.421642   8.421642  16.584161
  Angles:   90.000000  90.000000  60.000000

Effective grid spacing dv^(1/3) = 0.1901

     iter     time        total  log10-change:
                         energy  eigst   dens
iter:   1 19:26:48  -177.195617  -1.98
iter:   2 19:26:56  -176.783162  -1.44  -1.66
iter:   3 19:27:05  -170.587612  -1.77  -1.64
iter:   4 19:27:13  -166.845362  -2.93  -1.83
iter:   5 19:27:22  -166.656065  -3.44  -2.35
iter:   6 19:27:30  -166.575151  -3.75  -2.57
iter:   7 19:27:39  -166.557965c -3.76  -2.77
iter:   8 19:27:47  -166.501444c -3.43  -2.76
iter:   9 19:27:56  -166.496409c -4.55  -3.15
iter:  10 19:28:04  -166.495692c -5.38  -3.25
iter:  11 19:28:13  -166.495168c -5.64  -3.32
iter:  12 19:28:21  -166.494726c -5.03  -3.39
iter:  13 19:28:30  -166.494320c -5.68  -3.61
iter:  14 19:28:38  -166.494185c -5.78  -3.79
iter:  15 19:28:46  -166.494139c -6.46  -3.92
iter:  16 19:28:55  -166.494468c -6.43  -3.96
iter:  17 19:29:03  -166.494140c -6.61  -3.91
iter:  18 19:29:12  -166.493987c -6.87  -4.27c
iter:  19 19:29:20  -166.493995c -7.30  -4.38c
iter:  20 19:29:29  -166.494072c -7.50c -4.57c

Converged after 20 iterations.

Dipole moment: (-0.457122, -0.720948, -0.236548) |e|*Ang

Energy contributions relative to reference atoms: (reference = -13512175.647022)

Kinetic:       -314.097877
Potential:     +241.834131
External:        +0.000000
XC:             -78.691707
Entropy (-ST):   -1.772616
Local:          -14.652312
--------------------------
Free energy:   -167.380380
Extrapolated:  -166.494072

Showing only first 2 kpts
 Kpt  Band  Eigenvalues  Occupancy
  0   217      1.33660    0.98722
  0   218      1.37087    0.81791
  0   219      1.45196    0.47039
  0   220      1.49752    0.32636

  1   217      1.25238    1.38704
  1   218      1.26716    1.32249
  1   219      1.27736    1.27609
  1   220      1.29750    1.18072


Fermi level: 1.33404

No gap

Forces in eV/Ang:
  0 Pt   -0.00705   -0.02543   -0.01979
  1 Pt    0.02337    0.00683   -0.02308
  2 Pt   -0.01778    0.00494   -0.02839
  3 Pt    0.01827    0.02564   -0.05705
  4 Pt    0.00063   -0.01031   -0.08334
  5 Pt   -0.02220    0.02520   -0.06662
  6 Pt    0.02728   -0.02761   -0.03839
  7 Pt   -0.02760   -0.03408   -0.03497
  8 Pt   -0.00421   -0.03800   -0.22280
  9 Pt   -0.06106   -0.00872   -0.05781
 10 Pt    0.05567   -0.00294   -0.04975
 11 Pt    0.00292    0.02382   -0.02432
 12 Pt   -0.00144   -0.03495   -0.01121
 13 Pt    0.02659   -0.01516    0.00655
 14 Pt   -0.02436   -0.01734    0.00646
 15 Pt    0.05100    0.14397    0.36759
 16 Pt   -0.00585    0.01875   -0.36992
 17 Pt   -0.04484    0.14156    0.37847
 18 Pt    0.33307   -0.28606    1.24446
 19 Pt   -0.32953   -0.27138    1.23525
 20 Pt    0.00293   -0.00876   -0.00596
 21 Pt    0.00853    0.51860   -0.00099
 22 Pt    0.14774    0.14680    0.02329
 23 Pt   -0.15375    0.14818    0.01941
 24 Pt   -0.12109   -0.11007    0.00146
 25 Pt   -0.00131   -0.38546   -0.01148
 26 Pt    0.12716   -0.10783    0.00278
 27 O    -0.00295    0.18218   -2.07917

System changes: positions 

Initializing position-dependent things.

Density initialized from wave functions
                                            
                                            
                                            
                                            
                                            
                                            
                 Pt     Pt     Pt           
           O                                
            Pt    PPt    PPt   Pt           
       Pt    PPt    PPt    Pt               
                                            
        Pt     Pt    PPt    Pt    Pt        
                                            
                Pt     Pt     Pt            
           Pt     Pt     Pt                 
                                            
                                            
                                            
                                            

Positions:
   0 Pt     1.403607    0.810373    6.000000    ( 0.0000,  0.0000,  0.0000)
   1 Pt     4.210821    0.810373    6.000000    ( 0.0000,  0.0000,  0.0000)
   2 Pt     7.018035    0.810373    6.000000    ( 0.0000,  0.0000,  0.0000)
   3 Pt     2.807214    3.241491    6.000000    ( 0.0000,  0.0000,  0.0000)
   4 Pt     5.614428    3.241491    6.000000    ( 0.0000,  0.0000,  0.0000)
   5 Pt     8.421642    3.241491    6.000000    ( 0.0000,  0.0000,  0.0000)
   6 Pt     4.210821    5.672610    6.000000    ( 0.0000,  0.0000,  0.0000)
   7 Pt     7.018035    5.672610    6.000000    ( 0.0000,  0.0000,  0.0000)
   8 Pt     9.825249    5.672610    6.000000    ( 0.0000,  0.0000,  0.0000)
   9 Pt    -0.000000    1.620746    8.292081    ( 0.0000,  0.0000,  0.0000)
  10 Pt     2.807214    1.620746    8.292081    ( 0.0000,  0.0000,  0.0000)
  11 Pt     5.614428    1.620746    8.292081    ( 0.0000,  0.0000,  0.0000)
  12 Pt     1.403607    4.051864    8.292081    ( 0.0000,  0.0000,  0.0000)
  13 Pt     4.210821    4.051864    8.292081    ( 0.0000,  0.0000,  0.0000)
  14 Pt     7.018035    4.051864    8.292081    ( 0.0000,  0.0000,  0.0000)
  15 Pt     2.807214    6.482983    8.292081    ( 0.0000,  0.0000,  0.0000)
  16 Pt     5.614428    6.482983    8.292081    ( 0.0000,  0.0000,  0.0000)
  17 Pt     8.421642    6.482983    8.292081    ( 0.0000,  0.0000,  0.0000)
  18 Pt     0.000000    0.000000   10.584161    ( 0.0000,  0.0000,  0.0000)
  19 Pt     2.807214    0.000000   10.584161    ( 0.0000,  0.0000,  0.0000)
  20 Pt     5.614428    0.000000   10.584161    ( 0.0000,  0.0000,  0.0000)
  21 Pt     1.403607    2.431119   10.584161    ( 0.0000,  0.0000,  0.0000)
  22 Pt     4.210821    2.431119   10.584161    ( 0.0000,  0.0000,  0.0000)
  23 Pt     7.018035    2.431119   10.584161    ( 0.0000,  0.0000,  0.0000)
  24 Pt     2.807214    4.862237   10.584161    ( 0.0000,  0.0000,  0.0000)
  25 Pt     5.614428    4.862237   10.584161    ( 0.0000,  0.0000,  0.0000)
  26 Pt     8.421642    4.862237   10.584161    ( 0.0000,  0.0000,  0.0000)
  27 O      1.403125    0.028782   11.971794    ( 0.0000,  0.0000,  0.0000)

Unit cell:
           periodic     x           y           z      points  spacing
  1. axis:    yes    8.421642    0.000000    0.000000    42     0.1737
  2. axis:    yes    4.210821    7.293356    0.000000    42     0.1737
  3. axis:    no     0.000000    0.000000   16.584161    84     0.1974

  Lengths:   8.421642   8.421642  16.584161
  Angles:   90.000000  90.000000  60.000000

Effective grid spacing dv^(1/3) = 0.1901

     iter     time        total  log10-change:
                         energy  eigst   dens
iter:   1 19:29:42  -171.551291  -2.19
iter:   2 19:29:50  -171.484472  -1.84  -1.86
iter:   3 19:29:59  -169.705800  -2.02  -1.80
iter:   4 19:30:07  -166.885089  -2.95  -1.89
iter:   5 19:30:16  -166.796225  -3.73  -2.54
iter:   6 19:30:24  -166.761535c -3.99  -2.78
iter:   7 19:30:33  -166.747777c -3.80  -2.94
iter:   8 19:30:41  -166.727420c -3.96  -3.01
iter:   9 19:30:50  -166.727235c -5.05  -3.32
iter:  10 19:30:58  -166.726208c -5.64  -3.38
iter:  11 19:31:07  -166.725837c -5.52  -3.44
iter:  12 19:31:15  -166.726378c -5.59  -3.57
iter:  13 19:31:24  -166.726090c -5.54  -3.57
iter:  14 19:31:32  -166.725646c -6.22  -3.84
iter:  15 19:31:41  -166.725688c -6.88  -4.04c
iter:  16 19:31:49  -166.725431c -6.57  -4.04c
iter:  17 19:31:58  -166.725461c -6.60  -4.22c
iter:  18 19:32:06  -166.725434c -7.39  -4.35c
iter:  19 19:32:14  -166.725490c -6.89  -4.39c
iter:  20 19:32:23  -166.725566c -7.35  -4.52c
iter:  21 19:32:31  -166.725577c -8.36c -4.89c

Converged after 21 iterations.

Dipole moment: (-1.419436, -2.145762, -0.112614) |e|*Ang

Energy contributions relative to reference atoms: (reference = -13512175.647022)

Kinetic:       -300.264885
Potential:     +230.056802
External:        +0.000000
XC:             -80.932201
Entropy (-ST):   -1.747730
Local:          -14.711428
--------------------------
Free energy:   -167.599442
Extrapolated:  -166.725577

Showing only first 2 kpts
 Kpt  Band  Eigenvalues  Occupancy
  0   217      1.38917    0.98056
  0   218      1.43639    0.74988
  0   219      1.50796    0.45348
  0   220      1.54978    0.32358

  1   217      1.30179    1.39480
  1   218      1.31460    1.33943
  1   219      1.32483    1.29340
  1   220      1.34677    1.19022


Fermi level: 1.38528

No gap

Forces in eV/Ang:
  0 Pt   -0.00621   -0.03241   -0.03130
  1 Pt    0.01964   -0.00266   -0.02826
  2 Pt   -0.01408   -0.00484   -0.03392
  3 Pt    0.01389    0.03646   -0.06287
  4 Pt    0.00245   -0.00125   -0.08391
  5 Pt   -0.01873    0.03739   -0.07242
  6 Pt    0.01509   -0.03165   -0.05374
  7 Pt   -0.01534   -0.03870   -0.05132
  8 Pt   -0.00437   -0.06886   -0.27831
  9 Pt   -0.05540   -0.00003   -0.09476
 10 Pt    0.05318    0.00457   -0.08681
 11 Pt    0.00192    0.01996   -0.02608
 12 Pt   -0.00334   -0.01653   -0.02224
 13 Pt    0.01988   -0.01067    0.00273
 14 Pt   -0.01824   -0.01276    0.00231
 15 Pt    0.01874    0.12985    0.35765
 16 Pt   -0.00652    0.00814   -0.44570
 17 Pt   -0.01110    0.12627    0.36492
 18 Pt   -0.67331   -0.33203    0.26177
 19 Pt    0.66734   -0.31512    0.25485
 20 Pt    0.00424   -0.00072   -0.01666
 21 Pt    0.01066    0.69843   -0.07641
 22 Pt    0.18585    0.17050    0.02087
 23 Pt   -0.19072    0.17100    0.01810
 24 Pt   -0.13146   -0.11992   -0.00906
 25 Pt   -0.00089   -0.58678   -0.11338
 26 Pt    0.13753   -0.11855   -0.00639
 27 O    -0.00023    0.29120    0.37196

System changes: positions 

Initializing position-dependent things.

Density initialized from wave functions
                                            
                                            
                                            
                                            
                                            
                                            
                 Pt     Pt     Pt           
           O                                
            Pt    PPt    PPt   Pt           
       Pt    PPt    PPt    Pt               
                                            
        Pt     Pt    PPt    Pt    Pt        
                                            
                Pt     Pt     Pt            
           Pt     Pt     Pt                 
                                            
                                            
                                            
                                            

Positions:
   0 Pt     1.403607    0.810373    6.000000    ( 0.0000,  0.0000,  0.0000)
   1 Pt     4.210821    0.810373    6.000000    ( 0.0000,  0.0000,  0.0000)
   2 Pt     7.018035    0.810373    6.000000    ( 0.0000,  0.0000,  0.0000)
   3 Pt     2.807214    3.241491    6.000000    ( 0.0000,  0.0000,  0.0000)
   4 Pt     5.614428    3.241491    6.000000    ( 0.0000,  0.0000,  0.0000)
   5 Pt     8.421642    3.241491    6.000000    ( 0.0000,  0.0000,  0.0000)
   6 Pt     4.210821    5.672610    6.000000    ( 0.0000,  0.0000,  0.0000)
   7 Pt     7.018035    5.672610    6.000000    ( 0.0000,  0.0000,  0.0000)
   8 Pt     9.825249    5.672610    6.000000    ( 0.0000,  0.0000,  0.0000)
   9 Pt    -0.000000    1.620746    8.292081    ( 0.0000,  0.0000,  0.0000)
  10 Pt     2.807214    1.620746    8.292081    ( 0.0000,  0.0000,  0.0000)
  11 Pt     5.614428    1.620746    8.292081    ( 0.0000,  0.0000,  0.0000)
  12 Pt     1.403607    4.051864    8.292081    ( 0.0000,  0.0000,  0.0000)
  13 Pt     4.210821    4.051864    8.292081    ( 0.0000,  0.0000,  0.0000)
  14 Pt     7.018035    4.051864    8.292081    ( 0.0000,  0.0000,  0.0000)
  15 Pt     2.807214    6.482983    8.292081    ( 0.0000,  0.0000,  0.0000)
  16 Pt     5.614428    6.482983    8.292081    ( 0.0000,  0.0000,  0.0000)
  17 Pt     8.421642    6.482983    8.292081    ( 0.0000,  0.0000,  0.0000)
  18 Pt     0.000000    0.000000   10.584161    ( 0.0000,  0.0000,  0.0000)
  19 Pt     2.807214    0.000000   10.584161    ( 0.0000,  0.0000,  0.0000)
  20 Pt     5.614428    0.000000   10.584161    ( 0.0000,  0.0000,  0.0000)
  21 Pt     1.403607    2.431119   10.584161    ( 0.0000,  0.0000,  0.0000)
  22 Pt     4.210821    2.431119   10.584161    ( 0.0000,  0.0000,  0.0000)
  23 Pt     7.018035    2.431119   10.584161    ( 0.0000,  0.0000,  0.0000)
  24 Pt     2.807214    4.862237   10.584161    ( 0.0000,  0.0000,  0.0000)
  25 Pt     5.614428    4.862237   10.584161    ( 0.0000,  0.0000,  0.0000)
  26 Pt     8.421642    4.862237   10.584161    ( 0.0000,  0.0000,  0.0000)
  27 O      1.403062    0.059510   11.992694    ( 0.0000,  0.0000,  0.0000)

Unit cell:
           periodic     x           y           z      points  spacing
  1. axis:    yes    8.421642    0.000000    0.000000    42     0.1737
  2. axis:    yes    4.210821    7.293356    0.000000    42     0.1737
  3. axis:    no     0.000000    0.000000   16.584161    84     0.1974

  Lengths:   8.421642   8.421642  16.584161
  Angles:   90.000000  90.000000  60.000000

Effective grid spacing dv^(1/3) = 0.1901

     iter     time        total  log10-change:
                         energy  eigst   dens
iter:   1 19:32:45  -166.806828  -3.56
iter:   2 19:32:53  -166.859778  -3.60  -2.72
iter:   3 19:33:02  -166.783015c -3.75  -2.57
iter:   4 19:33:10  -166.739673c -4.68  -2.76
iter:   5 19:33:18  -166.739153c -5.71  -3.59
iter:   6 19:33:27  -166.738535c -5.37  -3.71
iter:   7 19:33:35  -166.738273c -5.50  -3.87
iter:   8 19:33:44  -166.738166c -6.38  -4.07c
iter:   9 19:33:52  -166.738077c -6.86  -4.19c
iter:  10 19:34:01  -166.738194c -7.02  -4.32c
iter:  11 19:34:09  -166.738009c -6.93  -4.23c
iter:  12 19:34:18  -166.738054c -7.31  -4.36c
iter:  13 19:34:26  -166.738047c -7.67c -4.70c

Converged after 13 iterations.

Dipole moment: (-2.577831, -4.155429, -0.124977) |e|*Ang

Energy contributions relative to reference atoms: (reference = -13512175.647022)

Kinetic:       -302.179433
Potential:     +231.684693
External:        +0.000000
XC:             -80.660838
Entropy (-ST):   -1.750115
Local:          -14.707411
--------------------------
Free energy:   -167.613104
Extrapolated:  -166.738047

Showing only first 2 kpts
 Kpt  Band  Eigenvalues  Occupancy
  0   217      1.38332    0.98335
  0   218      1.43248    0.74343
  0   219      1.50147    0.45771
  0   220      1.54312    0.32731

  1   217      1.29597    1.39703
  1   218      1.30849    1.34305
  1   219      1.32123    1.28565
  1   220      1.34174    1.18899


Fermi level: 1.37999

No gap

Forces in eV/Ang:
  0 Pt   -0.00628   -0.03026   -0.03209
  1 Pt    0.02017   -0.00045   -0.03068
  2 Pt   -0.01464   -0.00249   -0.03609
  3 Pt    0.01479    0.03469   -0.06321
  4 Pt    0.00225   -0.00240   -0.08608
  5 Pt   -0.01945    0.03548   -0.07282
  6 Pt    0.01523   -0.03254   -0.05481
  7 Pt   -0.01539   -0.03922   -0.05240
  8 Pt   -0.00438   -0.06781   -0.28102
  9 Pt   -0.05487   -0.00694   -0.09546
 10 Pt    0.05244   -0.00200   -0.08754
 11 Pt    0.00181    0.01980   -0.02681
 12 Pt   -0.00300   -0.01841   -0.01062
 13 Pt    0.02273   -0.00786    0.00295
 14 Pt   -0.02109   -0.00990    0.00268
 15 Pt    0.02596    0.13037    0.36620
 16 Pt   -0.00658    0.00896   -0.43328
 17 Pt   -0.01821    0.12702    0.37412
 18 Pt   -0.54133   -0.33957    0.38945
 19 Pt    0.53425   -0.32311    0.38323
 20 Pt    0.00463    0.00024   -0.01046
 21 Pt    0.01079    0.67939   -0.04917
 22 Pt    0.18759    0.17092    0.02594
 23 Pt   -0.19262    0.17165    0.02323
 24 Pt   -0.12535   -0.11636   -0.00362
 25 Pt   -0.00032   -0.58254   -0.11679
 26 Pt    0.13169   -0.11510   -0.00174
 27 O     0.00032    0.31148    0.02884

System changes: positions 

Initializing position-dependent things.

Density initialized from wave functions
                                            
                                            
                                            
                                            
                                            
                                            
                 Pt     Pt     Pt           
           O                                
            Pt    PPt    PPt   Pt           
       Pt    PPt    PPt    Pt               
                                            
        Pt     Pt    PPt    Pt    Pt        
                                            
                Pt     Pt     Pt            
           Pt     Pt     Pt                 
                                            
                                            
                                            
                                            

Positions:
   0 Pt     1.403607    0.810373    6.000000    ( 0.0000,  0.0000,  0.0000)
   1 Pt     4.210821    0.810373    6.000000    ( 0.0000,  0.0000,  0.0000)
   2 Pt     7.018035    0.810373    6.000000    ( 0.0000,  0.0000,  0.0000)
   3 Pt     2.807214    3.241491    6.000000    ( 0.0000,  0.0000,  0.0000)
   4 Pt     5.614428    3.241491    6.000000    ( 0.0000,  0.0000,  0.0000)
   5 Pt     8.421642    3.241491    6.000000    ( 0.0000,  0.0000,  0.0000)
   6 Pt     4.210821    5.672610    6.000000    ( 0.0000,  0.0000,  0.0000)
   7 Pt     7.018035    5.672610    6.000000    ( 0.0000,  0.0000,  0.0000)
   8 Pt     9.825249    5.672610    6.000000    ( 0.0000,  0.0000,  0.0000)
   9 Pt    -0.000000    1.620746    8.292081    ( 0.0000,  0.0000,  0.0000)
  10 Pt     2.807214    1.620746    8.292081    ( 0.0000,  0.0000,  0.0000)
  11 Pt     5.614428    1.620746    8.292081    ( 0.0000,  0.0000,  0.0000)
  12 Pt     1.403607    4.051864    8.292081    ( 0.0000,  0.0000,  0.0000)
  13 Pt     4.210821    4.051864    8.292081    ( 0.0000,  0.0000,  0.0000)
  14 Pt     7.018035    4.051864    8.292081    ( 0.0000,  0.0000,  0.0000)
  15 Pt     2.807214    6.482983    8.292081    ( 0.0000,  0.0000,  0.0000)
  16 Pt     5.614428    6.482983    8.292081    ( 0.0000,  0.0000,  0.0000)
  17 Pt     8.421642    6.482983    8.292081    ( 0.0000,  0.0000,  0.0000)
  18 Pt     0.000000    0.000000   10.584161    ( 0.0000,  0.0000,  0.0000)
  19 Pt     2.807214    0.000000   10.584161    ( 0.0000,  0.0000,  0.0000)
  20 Pt     5.614428    0.000000   10.584161    ( 0.0000,  0.0000,  0.0000)
  21 Pt     1.403607    2.431119   10.584161    ( 0.0000,  0.0000,  0.0000)
  22 Pt     4.210821    2.431119   10.584161    ( 0.0000,  0.0000,  0.0000)
  23 Pt     7.018035    2.431119   10.584161    ( 0.0000,  0.0000,  0.0000)
  24 Pt     2.807214    4.862237   10.584161    ( 0.0000,  0.0000,  0.0000)
  25 Pt     5.614428    4.862237   10.584161    ( 0.0000,  0.0000,  0.0000)
  26 Pt     8.421642    4.862237   10.584161    ( 0.0000,  0.0000,  0.0000)
  27 O      1.403201    0.309697   12.014145    ( 0.0000,  0.0000,  0.0000)

Unit cell:
           periodic     x           y           z      points  spacing
  1. axis:    yes    8.421642    0.000000    0.000000    42     0.1737
  2. axis:    yes    4.210821    7.293356    0.000000    42     0.1737
  3. axis:    no     0.000000    0.000000   16.584161    84     0.1974

  Lengths:   8.421642   8.421642  16.584161
  Angles:   90.000000  90.000000  60.000000

Effective grid spacing dv^(1/3) = 0.1901

     iter     time        total  log10-change:
                         energy  eigst   dens
iter:   1 19:34:39  -167.267591  -2.14
iter:   2 19:34:48  -167.268283  -3.00  -2.36
iter:   3 19:34:56  -166.975565  -3.39  -2.28
iter:   4 19:35:05  -166.893051  -3.89  -2.54
iter:   5 19:35:13  -166.862788c -4.12  -2.82
iter:   6 19:35:22  -166.840291c -3.74  -2.96
iter:   7 19:35:30  -166.837752c -4.62  -3.27
iter:   8 19:35:39  -166.837058c -5.21  -3.39
iter:   9 19:35:47  -166.838099c -5.21  -3.47
iter:  10 19:35:55  -166.836374c -5.89  -3.43
iter:  11 19:36:04  -166.836512c -5.77  -3.72
iter:  12 19:36:12  -166.836116c -6.10  -3.81
iter:  13 19:36:21  -166.836020c -6.81  -4.05c
iter:  14 19:36:29  -166.836001c -6.57  -4.07c
iter:  15 19:36:38  -166.836037c -6.86  -4.23c
iter:  16 19:36:46  -166.836024c -7.51c -4.43c

Converged after 16 iterations.

Dipole moment: (-5.094898, -8.265537, -0.137209) |e|*Ang

Energy contributions relative to reference atoms: (reference = -13512175.647022)

Kinetic:       -305.632928
Potential:     +234.542533
External:        +0.000000
XC:             -80.186845
Entropy (-ST):   -1.750996
Local:          -14.683286
--------------------------
Free energy:   -167.711522
Extrapolated:  -166.836024

Showing only first 2 kpts
 Kpt  Band  Eigenvalues  Occupancy
  0   217      1.36878    1.03955
  0   218      1.45494    0.62756
  0   219      1.49045    0.48553
  0   220      1.52667    0.36492

  1   217      1.28327    1.43589
  1   218      1.30224    1.35597
  1   219      1.33052    1.22685
  1   220      1.34108    1.17619


Fermi level: 1.37669

No gap

Forces in eV/Ang:
  0 Pt   -0.00672   -0.02094   -0.02788
  1 Pt    0.02336    0.01210   -0.03627
  2 Pt   -0.01836    0.01125   -0.04217
  3 Pt    0.02405    0.02637   -0.05437
  4 Pt    0.00186   -0.00236   -0.08683
  5 Pt   -0.02826    0.02780   -0.06395
  6 Pt    0.01169   -0.03847   -0.05529
  7 Pt   -0.01091   -0.04311   -0.05393
  8 Pt   -0.00462   -0.06921   -0.30064
  9 Pt   -0.04822   -0.01778   -0.15248
 10 Pt    0.04726   -0.01179   -0.14557
 11 Pt    0.00069    0.01956   -0.02352
 12 Pt   -0.00103   -0.05255    0.12789
 13 Pt    0.02789    0.00202    0.00265
 14 Pt   -0.02697   -0.00029    0.00425
 15 Pt    0.06982    0.12318    0.42650
 16 Pt   -0.00723   -0.00953   -0.36598
 17 Pt   -0.06157    0.12084    0.43648
 18 Pt   -0.43407   -0.40199    0.54346
 19 Pt    0.41793   -0.38695    0.54127
 20 Pt    0.00733   -0.01357   -0.00913
 21 Pt    0.01109    0.54315    0.19443
 22 Pt    0.23461    0.19420    0.01706
 23 Pt   -0.23947    0.19604    0.01220
 24 Pt   -0.08270   -0.07173    0.01278
 25 Pt    0.00238   -0.55569   -0.14081
 26 Pt    0.09203   -0.07162    0.00785
 27 O    -0.00269    0.52154   -0.71669

System changes: positions 

Initializing position-dependent things.

Density initialized from wave functions
                                            
                                            
                                            
                                            
                                            
                                            
                 Pt     Pt     Pt           
           O                                
            Pt    PPt    PPt   Pt           
       Pt    PPt    PPt    Pt               
                                            
        Pt     Pt    PPt    Pt    Pt        
                                            
                Pt     Pt     Pt            
           Pt     Pt     Pt                 
                                            
                                            
                                            
                                            

Positions:
   0 Pt     1.403607    0.810373    6.000000    ( 0.0000,  0.0000,  0.0000)
   1 Pt     4.210821    0.810373    6.000000    ( 0.0000,  0.0000,  0.0000)
   2 Pt     7.018035    0.810373    6.000000    ( 0.0000,  0.0000,  0.0000)
   3 Pt     2.807214    3.241491    6.000000    ( 0.0000,  0.0000,  0.0000)
   4 Pt     5.614428    3.241491    6.000000    ( 0.0000,  0.0000,  0.0000)
   5 Pt     8.421642    3.241491    6.000000    ( 0.0000,  0.0000,  0.0000)
   6 Pt     4.210821    5.672610    6.000000    ( 0.0000,  0.0000,  0.0000)
   7 Pt     7.018035    5.672610    6.000000    ( 0.0000,  0.0000,  0.0000)
   8 Pt     9.825249    5.672610    6.000000    ( 0.0000,  0.0000,  0.0000)
   9 Pt    -0.000000    1.620746    8.292081    ( 0.0000,  0.0000,  0.0000)
  10 Pt     2.807214    1.620746    8.292081    ( 0.0000,  0.0000,  0.0000)
  11 Pt     5.614428    1.620746    8.292081    ( 0.0000,  0.0000,  0.0000)
  12 Pt     1.403607    4.051864    8.292081    ( 0.0000,  0.0000,  0.0000)
  13 Pt     4.210821    4.051864    8.292081    ( 0.0000,  0.0000,  0.0000)
  14 Pt     7.018035    4.051864    8.292081    ( 0.0000,  0.0000,  0.0000)
  15 Pt     2.807214    6.482983    8.292081    ( 0.0000,  0.0000,  0.0000)
  16 Pt     5.614428    6.482983    8.292081    ( 0.0000,  0.0000,  0.0000)
  17 Pt     8.421642    6.482983    8.292081    ( 0.0000,  0.0000,  0.0000)
  18 Pt     0.000000    0.000000   10.584161    ( 0.0000,  0.0000,  0.0000)
  19 Pt     2.807214    0.000000   10.584161    ( 0.0000,  0.0000,  0.0000)
  20 Pt     5.614428    0.000000   10.584161    ( 0.0000,  0.0000,  0.0000)
  21 Pt     1.403607    2.431119   10.584161    ( 0.0000,  0.0000,  0.0000)
  22 Pt     4.210821    2.431119   10.584161    ( 0.0000,  0.0000,  0.0000)
  23 Pt     7.018035    2.431119   10.584161    ( 0.0000,  0.0000,  0.0000)
  24 Pt     2.807214    4.862237   10.584161    ( 0.0000,  0.0000,  0.0000)
  25 Pt     5.614428    4.862237   10.584161    ( 0.0000,  0.0000,  0.0000)
  26 Pt     8.421642    4.862237   10.584161    ( 0.0000,  0.0000,  0.0000)
  27 O      1.402795    0.574956   11.942050    ( 0.0000,  0.0000,  0.0000)

Unit cell:
           periodic     x           y           z      points  spacing
  1. axis:    yes    8.421642    0.000000    0.000000    42     0.1737
  2. axis:    yes    4.210821    7.293356    0.000000    42     0.1737
  3. axis:    no     0.000000    0.000000   16.584161    84     0.1974

  Lengths:   8.421642   8.421642  16.584161
  Angles:   90.000000  90.000000  60.000000

Effective grid spacing dv^(1/3) = 0.1901

     iter     time        total  log10-change:
                         energy  eigst   dens
iter:   1 19:36:59  -167.657479  -2.17
iter:   2 19:37:08  -167.437145  -2.98  -2.35
iter:   3 19:37:16  -167.584020  -3.02  -2.31
iter:   4 19:37:25  -167.123408  -3.63  -2.25
iter:   5 19:37:33  -167.084231  -3.86  -2.80
iter:   6 19:37:42  -167.066656c -4.16  -2.95
iter:   7 19:37:50  -167.057288c -4.01  -3.11
iter:   8 19:37:59  -167.054800c -4.77  -3.31
iter:   9 19:38:07  -167.054010c -5.57  -3.41
iter:  10 19:38:16  -167.054404c -5.50  -3.42
iter:  11 19:38:24  -167.053542c -5.20  -3.44
iter:  12 19:38:33  -167.053397c -5.93  -3.73
iter:  13 19:38:41  -167.053169c -6.37  -3.86
iter:  14 19:38:50  -167.052927c -6.58  -4.00c
iter:  15 19:38:58  -167.052785c -6.61  -4.18c
iter:  16 19:39:07  -167.052978c -6.77  -4.31c
iter:  17 19:39:15  -167.052865c -7.27  -4.26c
iter:  18 19:39:24  -167.052866c -7.56c -4.52c

Converged after 18 iterations.

Dipole moment: (-2.461258, -3.069502, -0.098888) |e|*Ang

Energy contributions relative to reference atoms: (reference = -13512175.647022)

Kinetic:       -304.271935
Potential:     +233.290493
External:        +0.000000
XC:             -80.522960
Entropy (-ST):   -1.731109
Local:          -14.682910
--------------------------
Free energy:   -167.918421
Extrapolated:  -167.052866

Showing only first 2 kpts
 Kpt  Band  Eigenvalues  Occupancy
  0   217      1.36708    1.12988
  0   218      1.48790    0.55898
  0   219      1.51824    0.44527
  0   220      1.53424    0.39236

  1   217      1.28439    1.49605
  1   218      1.31960    1.35225
  1   219      1.34892    1.21787
  1   220      1.35940    1.16743


Fermi level: 1.39320

No gap

Forces in eV/Ang:
  0 Pt   -0.00664   -0.01059   -0.02665
  1 Pt    0.02755    0.01805   -0.05087
  2 Pt   -0.02485    0.01804   -0.05875
  3 Pt    0.02821    0.01981   -0.05892
  4 Pt    0.00151   -0.00067   -0.08968
  5 Pt   -0.03181    0.02428   -0.06860
  6 Pt    0.00461   -0.03691   -0.06288
  7 Pt   -0.00239   -0.04165   -0.06311
  8 Pt   -0.00563   -0.05396   -0.33066
  9 Pt   -0.04407   -0.00280   -0.24666
 10 Pt    0.04579    0.00384   -0.24398
 11 Pt    0.00066    0.02344   -0.00823
 12 Pt    0.00071   -0.10879    0.32986
 13 Pt    0.02939   -0.00429    0.00197
 14 Pt   -0.02965   -0.00724    0.00554
 15 Pt    0.10367    0.10456    0.45600
 16 Pt   -0.00678   -0.03434   -0.33360
 17 Pt   -0.09562    0.10223    0.46605
 18 Pt   -0.70784   -0.50570    0.36737
 19 Pt    0.67900   -0.48783    0.37427
 20 Pt    0.00819   -0.02724    0.00249
 21 Pt    0.00731    0.46376    0.46706
 22 Pt    0.30761    0.21111   -0.00798
 23 Pt   -0.30922    0.21443   -0.01728
 24 Pt   -0.04756   -0.01578    0.02501
 25 Pt    0.00325   -0.48778   -0.08524
 26 Pt    0.05953   -0.01737    0.01368
 27 O     0.00417    0.61983   -0.71186

System changes: positions 

Initializing position-dependent things.

Density initialized from wave functions
                                            
                                            
                                            
                                            
                                            
                                            
                 Pt     Pt     Pt           
           OPt     Pt     Pt                
                  Pt     Pt    Pt           
       Pt    PPt    PPt    Pt               
                                            
        Pt     Pt    PPt    Pt    Pt        
                                            
                Pt     Pt     Pt            
           Pt     Pt     Pt                 
                                            
                                            
                                            
                                            

Positions:
   0 Pt     1.403607    0.810373    6.000000    ( 0.0000,  0.0000,  0.0000)
   1 Pt     4.210821    0.810373    6.000000    ( 0.0000,  0.0000,  0.0000)
   2 Pt     7.018035    0.810373    6.000000    ( 0.0000,  0.0000,  0.0000)
   3 Pt     2.807214    3.241491    6.000000    ( 0.0000,  0.0000,  0.0000)
   4 Pt     5.614428    3.241491    6.000000    ( 0.0000,  0.0000,  0.0000)
   5 Pt     8.421642    3.241491    6.000000    ( 0.0000,  0.0000,  0.0000)
   6 Pt     4.210821    5.672610    6.000000    ( 0.0000,  0.0000,  0.0000)
   7 Pt     7.018035    5.672610    6.000000    ( 0.0000,  0.0000,  0.0000)
   8 Pt     9.825249    5.672610    6.000000    ( 0.0000,  0.0000,  0.0000)
   9 Pt    -0.000000    1.620746    8.292081    ( 0.0000,  0.0000,  0.0000)
  10 Pt     2.807214    1.620746    8.292081    ( 0.0000,  0.0000,  0.0000)
  11 Pt     5.614428    1.620746    8.292081    ( 0.0000,  0.0000,  0.0000)
  12 Pt     1.403607    4.051864    8.292081    ( 0.0000,  0.0000,  0.0000)
  13 Pt     4.210821    4.051864    8.292081    ( 0.0000,  0.0000,  0.0000)
  14 Pt     7.018035    4.051864    8.292081    ( 0.0000,  0.0000,  0.0000)
  15 Pt     2.807214    6.482983    8.292081    ( 0.0000,  0.0000,  0.0000)
  16 Pt     5.614428    6.482983    8.292081    ( 0.0000,  0.0000,  0.0000)
  17 Pt     8.421642    6.482983    8.292081    ( 0.0000,  0.0000,  0.0000)
  18 Pt     0.000000    0.000000   10.584161    ( 0.0000,  0.0000,  0.0000)
  19 Pt     2.807214    0.000000   10.584161    ( 0.0000,  0.0000,  0.0000)
  20 Pt     5.614428    0.000000   10.584161    ( 0.0000,  0.0000,  0.0000)
  21 Pt     1.403607    2.431119   10.584161    ( 0.0000,  0.0000,  0.0000)
  22 Pt     4.210821    2.431119   10.584161    ( 0.0000,  0.0000,  0.0000)
  23 Pt     7.018035    2.431119   10.584161    ( 0.0000,  0.0000,  0.0000)
  24 Pt     2.807214    4.862237   10.584161    ( 0.0000,  0.0000,  0.0000)
  25 Pt     5.614428    4.862237   10.584161    ( 0.0000,  0.0000,  0.0000)
  26 Pt     8.421642    4.862237   10.584161    ( 0.0000,  0.0000,  0.0000)
  27 O      1.403328    0.794992   11.820890    ( 0.0000,  0.0000,  0.0000)

Unit cell:
           periodic     x           y           z      points  spacing
  1. axis:    yes    8.421642    0.000000    0.000000    42     0.1737
  2. axis:    yes    4.210821    7.293356    0.000000    42     0.1737
  3. axis:    no     0.000000    0.000000   16.584161    84     0.1974

  Lengths:   8.421642   8.421642  16.584161
  Angles:   90.000000  90.000000  60.000000

Effective grid spacing dv^(1/3) = 0.1901

     iter     time        total  log10-change:
                         energy  eigst   dens
iter:   1 19:39:37  -168.776647  -2.13
iter:   2 19:39:45  -168.836425  -2.36  -2.11
iter:   3 19:39:54  -168.169636  -2.55  -2.01
iter:   4 19:40:02  -167.329171  -3.45  -2.13
iter:   5 19:40:10  -167.260329  -3.66  -2.69
iter:   6 19:40:19  -167.244346c -4.27  -2.91
iter:   7 19:40:27  -167.227660c -3.93  -3.01
iter:   8 19:40:36  -167.219079c -4.19  -3.21
iter:   9 19:40:44  -167.217701c -5.06  -3.37
iter:  10 19:40:53  -167.217096c -5.50  -3.45
iter:  11 19:41:01  -167.217892c -5.55  -3.54
iter:  12 19:41:10  -167.216814c -5.46  -3.46
iter:  13 19:41:18  -167.216683c -6.04  -3.84
iter:  14 19:41:27  -167.216608c -6.65  -3.95
iter:  15 19:41:35  -167.216583c -6.26  -4.06c
iter:  16 19:41:44  -167.216476c -6.67  -4.21c
iter:  17 19:41:52  -167.216509c -6.69  -4.17c
iter:  18 19:42:01  -167.216463c -7.23  -4.32c
iter:  19 19:42:09  -167.216524c -7.63c -4.60c

Converged after 19 iterations.

Dipole moment: (-1.870375, -1.155318, -0.046271) |e|*Ang

Energy contributions relative to reference atoms: (reference = -13512175.647022)

Kinetic:       -297.616609
Potential:     +227.606488
External:        +0.000000
XC:             -81.646618
Entropy (-ST):   -1.705069
Local:          -14.707251
--------------------------
Free energy:   -168.069058
Extrapolated:  -167.216524

Showing only first 2 kpts
 Kpt  Band  Eigenvalues  Occupancy
  0   217      1.37592    1.18804
  0   218      1.49906    0.59857
  0   219      1.54276    0.43245
  0   220      1.57295    0.33886

  1   217      1.29889    1.51936
  1   218      1.34240    1.34340
  1   219      1.36678    1.23172
  1   220      1.37833    1.17639


Fermi level: 1.41398

No gap

Forces in eV/Ang:
  0 Pt   -0.00575   -0.00325   -0.02419
  1 Pt    0.02797    0.01224   -0.06018
  2 Pt   -0.02864    0.01129   -0.06874
  3 Pt    0.02440    0.01781   -0.06022
  4 Pt    0.00098    0.00049   -0.08830
  5 Pt   -0.02754    0.02572   -0.06969
  6 Pt   -0.00462   -0.03042   -0.06903
  7 Pt    0.00861   -0.03680   -0.06984
  8 Pt   -0.00625   -0.00726   -0.37067
  9 Pt   -0.04365    0.02225   -0.32324
 10 Pt    0.04684    0.02951   -0.32664
 11 Pt    0.00165    0.02805    0.00902
 12 Pt    0.00057   -0.11815    0.43969
 13 Pt    0.02299   -0.01258    0.00981
 14 Pt   -0.02409   -0.01529    0.01410
 15 Pt    0.10619    0.06307    0.43299
 16 Pt   -0.00488   -0.04941   -0.32382
 17 Pt   -0.09823    0.05922    0.44232
 18 Pt   -1.04488   -0.61283    0.12163
 19 Pt    1.01371   -0.59082    0.13096
 20 Pt    0.00923   -0.03780    0.01502
 21 Pt    0.00397    1.08919    0.18338
 22 Pt    0.38272    0.22568   -0.03483
 23 Pt   -0.37994    0.22729   -0.04572
 24 Pt   -0.02391    0.02559    0.01684
 25 Pt    0.00281   -0.44709   -0.04829
 26 Pt    0.03492    0.02132    0.00365
 27 O     0.00615    0.11122    0.23565

System changes: positions 

Initializing position-dependent things.

Density initialized from wave functions
                                            
                                            
                                            
                                            
                                            
                                            
                 Pt     Pt     Pt           
           OPt     Pt     Pt                
                  Pt     Pt    Pt           
       Pt    PPt    PPt    Pt               
                                            
        Pt     Pt    PPt    Pt    Pt        
                                            
                Pt     Pt     Pt            
           Pt     Pt     Pt                 
                                            
                                            
                                            
                                            

Positions:
   0 Pt     1.403607    0.810373    6.000000    ( 0.0000,  0.0000,  0.0000)
   1 Pt     4.210821    0.810373    6.000000    ( 0.0000,  0.0000,  0.0000)
   2 Pt     7.018035    0.810373    6.000000    ( 0.0000,  0.0000,  0.0000)
   3 Pt     2.807214    3.241491    6.000000    ( 0.0000,  0.0000,  0.0000)
   4 Pt     5.614428    3.241491    6.000000    ( 0.0000,  0.0000,  0.0000)
   5 Pt     8.421642    3.241491    6.000000    ( 0.0000,  0.0000,  0.0000)
   6 Pt     4.210821    5.672610    6.000000    ( 0.0000,  0.0000,  0.0000)
   7 Pt     7.018035    5.672610    6.000000    ( 0.0000,  0.0000,  0.0000)
   8 Pt     9.825249    5.672610    6.000000    ( 0.0000,  0.0000,  0.0000)
   9 Pt    -0.000000    1.620746    8.292081    ( 0.0000,  0.0000,  0.0000)
  10 Pt     2.807214    1.620746    8.292081    ( 0.0000,  0.0000,  0.0000)
  11 Pt     5.614428    1.620746    8.292081    ( 0.0000,  0.0000,  0.0000)
  12 Pt     1.403607    4.051864    8.292081    ( 0.0000,  0.0000,  0.0000)
  13 Pt     4.210821    4.051864    8.292081    ( 0.0000,  0.0000,  0.0000)
  14 Pt     7.018035    4.051864    8.292081    ( 0.0000,  0.0000,  0.0000)
  15 Pt     2.807214    6.482983    8.292081    ( 0.0000,  0.0000,  0.0000)
  16 Pt     5.614428    6.482983    8.292081    ( 0.0000,  0.0000,  0.0000)
  17 Pt     8.421642    6.482983    8.292081    ( 0.0000,  0.0000,  0.0000)
  18 Pt     0.000000    0.000000   10.584161    ( 0.0000,  0.0000,  0.0000)
  19 Pt     2.807214    0.000000   10.584161    ( 0.0000,  0.0000,  0.0000)
  20 Pt     5.614428    0.000000   10.584161    ( 0.0000,  0.0000,  0.0000)
  21 Pt     1.403607    2.431119   10.584161    ( 0.0000,  0.0000,  0.0000)
  22 Pt     4.210821    2.431119   10.584161    ( 0.0000,  0.0000,  0.0000)
  23 Pt     7.018035    2.431119   10.584161    ( 0.0000,  0.0000,  0.0000)
  24 Pt     2.807214    4.862237   10.584161    ( 0.0000,  0.0000,  0.0000)
  25 Pt     5.614428    4.862237   10.584161    ( 0.0000,  0.0000,  0.0000)
  26 Pt     8.421642    4.862237   10.584161    ( 0.0000,  0.0000,  0.0000)
  27 O      1.403803    0.803625   11.830554    ( 0.0000,  0.0000,  0.0000)

Unit cell:
           periodic     x           y           z      points  spacing
  1. axis:    yes    8.421642    0.000000    0.000000    42     0.1737
  2. axis:    yes    4.210821    7.293356    0.000000    42     0.1737
  3. axis:    no     0.000000    0.000000   16.584161    84     0.1974

  Lengths:   8.421642   8.421642  16.584161
  Angles:   90.000000  90.000000  60.000000

Effective grid spacing dv^(1/3) = 0.1901

     iter     time        total  log10-change:
                         energy  eigst   dens
iter:   1 19:42:22  -167.234487  -4.28
iter:   2 19:42:31  -167.253980  -4.14  -3.00
iter:   3 19:42:39  -167.221979c -4.46  -2.84
iter:   4 19:42:48  -167.218250c -5.55  -3.25
iter:   5 19:42:56  -167.218294c -6.18  -3.90
iter:   6 19:43:05  -167.218170c -6.22  -4.11c
iter:   7 19:43:13  -167.218095c -6.22  -4.27c
iter:   8 19:43:22  -167.218117c -6.93  -4.42c
iter:   9 19:43:30  -167.218132c -7.60c -4.59c

Converged after 9 iterations.

Dipole moment: (-1.860295, -1.108536, -0.049902) |e|*Ang

Energy contributions relative to reference atoms: (reference = -13512175.647022)

Kinetic:       -298.119977
Potential:     +228.024933
External:        +0.000000
XC:             -81.548057
Entropy (-ST):   -1.706420
Local:          -14.721822
--------------------------
Free energy:   -168.071342
Extrapolated:  -167.218132

Showing only first 2 kpts
 Kpt  Band  Eigenvalues  Occupancy
  0   217      1.37459    1.18946
  0   218      1.49760    0.60032
  0   219      1.54213    0.43110
  0   220      1.57183    0.33911

  1   217      1.29769    1.51998
  1   218      1.34127    1.34381
  1   219      1.36571    1.23191
  1   220      1.37718    1.17695


Fermi level: 1.41295

No gap

Forces in eV/Ang:
  0 Pt   -0.00573   -0.00327   -0.02126
  1 Pt    0.02848    0.01293   -0.05843
  2 Pt   -0.02923    0.01193   -0.06682
  3 Pt    0.02544    0.01781   -0.05863
  4 Pt    0.00087    0.00041   -0.08711
  5 Pt   -0.02855    0.02568   -0.06803
  6 Pt   -0.00413   -0.03120   -0.06640
  7 Pt    0.00809   -0.03763   -0.06739
  8 Pt   -0.00612   -0.00488   -0.36557
  9 Pt   -0.03997    0.01946   -0.31531
 10 Pt    0.04302    0.02677   -0.31857
 11 Pt    0.00164    0.02862    0.00943
 12 Pt    0.00063   -0.11679    0.44058
 13 Pt    0.02475   -0.01300    0.01028
 14 Pt   -0.02585   -0.01559    0.01462
 15 Pt    0.10821    0.06409    0.43362
 16 Pt   -0.00486   -0.04475   -0.31738
 17 Pt   -0.10033    0.06027    0.44359
 18 Pt   -0.95818   -0.56796    0.17307
 19 Pt    0.93085   -0.54842    0.17880
 20 Pt    0.00919   -0.03448    0.00751
 21 Pt    0.00351    1.05239    0.17861
 22 Pt    0.38279    0.22417   -0.04593
 23 Pt   -0.37929    0.22535   -0.05612
 24 Pt   -0.02563    0.02225    0.00790
 25 Pt    0.00275   -0.43289   -0.04666
 26 Pt    0.03659    0.01804   -0.00545
 27 O     0.00283    0.04833    0.10138

System changes: positions 

Initializing position-dependent things.

Density initialized from wave functions
                                            
                                            
                                            
                                            
                                            
                                            
                 Pt     Pt     Pt           
           OPt     Pt     Pt                
                  Pt     Pt    Pt           
       Pt    PPt    PPt    Pt               
                                            
        Pt     Pt    PPt    Pt    Pt        
                                            
                Pt     Pt     Pt            
           Pt     Pt     Pt                 
                                            
                                            
                                            
                                            

Positions:
   0 Pt     1.403607    0.810373    6.000000    ( 0.0000,  0.0000,  0.0000)
   1 Pt     4.210821    0.810373    6.000000    ( 0.0000,  0.0000,  0.0000)
   2 Pt     7.018035    0.810373    6.000000    ( 0.0000,  0.0000,  0.0000)
   3 Pt     2.807214    3.241491    6.000000    ( 0.0000,  0.0000,  0.0000)
   4 Pt     5.614428    3.241491    6.000000    ( 0.0000,  0.0000,  0.0000)
   5 Pt     8.421642    3.241491    6.000000    ( 0.0000,  0.0000,  0.0000)
   6 Pt     4.210821    5.672610    6.000000    ( 0.0000,  0.0000,  0.0000)
   7 Pt     7.018035    5.672610    6.000000    ( 0.0000,  0.0000,  0.0000)
   8 Pt     9.825249    5.672610    6.000000    ( 0.0000,  0.0000,  0.0000)
   9 Pt    -0.000000    1.620746    8.292081    ( 0.0000,  0.0000,  0.0000)
  10 Pt     2.807214    1.620746    8.292081    ( 0.0000,  0.0000,  0.0000)
  11 Pt     5.614428    1.620746    8.292081    ( 0.0000,  0.0000,  0.0000)
  12 Pt     1.403607    4.051864    8.292081    ( 0.0000,  0.0000,  0.0000)
  13 Pt     4.210821    4.051864    8.292081    ( 0.0000,  0.0000,  0.0000)
  14 Pt     7.018035    4.051864    8.292081    ( 0.0000,  0.0000,  0.0000)
  15 Pt     2.807214    6.482983    8.292081    ( 0.0000,  0.0000,  0.0000)
  16 Pt     5.614428    6.482983    8.292081    ( 0.0000,  0.0000,  0.0000)
  17 Pt     8.421642    6.482983    8.292081    ( 0.0000,  0.0000,  0.0000)
  18 Pt     0.000000    0.000000   10.584161    ( 0.0000,  0.0000,  0.0000)
  19 Pt     2.807214    0.000000   10.584161    ( 0.0000,  0.0000,  0.0000)
  20 Pt     5.614428    0.000000   10.584161    ( 0.0000,  0.0000,  0.0000)
  21 Pt     1.403607    2.431119   10.584161    ( 0.0000,  0.0000,  0.0000)
  22 Pt     4.210821    2.431119   10.584161    ( 0.0000,  0.0000,  0.0000)
  23 Pt     7.018035    2.431119   10.584161    ( 0.0000,  0.0000,  0.0000)
  24 Pt     2.807214    4.862237   10.584161    ( 0.0000,  0.0000,  0.0000)
  25 Pt     5.614428    4.862237   10.584161    ( 0.0000,  0.0000,  0.0000)
  26 Pt     8.421642    4.862237   10.584161    ( 0.0000,  0.0000,  0.0000)
  27 O      1.404189    0.810777   11.838028    ( 0.0000,  0.0000,  0.0000)

Unit cell:
           periodic     x           y           z      points  spacing
  1. axis:    yes    8.421642    0.000000    0.000000    42     0.1737
  2. axis:    yes    4.210821    7.293356    0.000000    42     0.1737
  3. axis:    no     0.000000    0.000000   16.584161    84     0.1974

  Lengths:   8.421642   8.421642  16.584161
  Angles:   90.000000  90.000000  60.000000

Effective grid spacing dv^(1/3) = 0.1901

     iter     time        total  log10-change:
                         energy  eigst   dens
iter:   1 19:43:43  -167.230693  -4.44
iter:   2 19:43:52  -167.248931  -4.22  -3.04
iter:   3 19:44:00  -167.220301c -4.56  -2.88
iter:   4 19:44:09  -167.218107c -5.75  -3.35
iter:   5 19:44:17  -167.218181c -6.33  -3.97
iter:   6 19:44:25  -167.218104c -6.38  -4.19c
iter:   7 19:44:34  -167.218060c -6.36  -4.36c
iter:   8 19:44:42  -167.218079c -7.12  -4.53c
iter:   9 19:44:51  -167.218089c -7.80c -4.64c

Converged after 9 iterations.

Dipole moment: (-1.854796, -1.071361, -0.052842) |e|*Ang

Energy contributions relative to reference atoms: (reference = -13512175.647022)

Kinetic:       -298.668265
Potential:     +228.483956
External:        +0.000000
XC:             -81.463196
Entropy (-ST):   -1.707547
Local:          -14.716811
--------------------------
Free energy:   -168.071863
Extrapolated:  -167.218089

Showing only first 2 kpts
 Kpt  Band  Eigenvalues  Occupancy
  0   217      1.37324    1.19071
  0   218      1.49614    0.60187
  0   219      1.54134    0.43007
  0   220      1.57063    0.33939

  1   217      1.29649    1.52036
  1   218      1.34012    1.34407
  1   219      1.36457    1.23210
  1   220      1.37599    1.17745


Fermi level: 1.41186

No gap

Forces in eV/Ang:
  0 Pt   -0.00572   -0.00323   -0.02077
  1 Pt    0.02858    0.01333   -0.05796
  2 Pt   -0.02937    0.01228   -0.06630
  3 Pt    0.02596    0.01764   -0.05808
  4 Pt    0.00081    0.00048   -0.08670
  5 Pt   -0.02901    0.02542   -0.06743
  6 Pt   -0.00380   -0.03144   -0.06584
  7 Pt    0.00771   -0.03784   -0.06684
  8 Pt   -0.00604   -0.00294   -0.36263
  9 Pt   -0.03862    0.01904   -0.31304
 10 Pt    0.04158    0.02641   -0.31624
 11 Pt    0.00166    0.02888    0.00937
 12 Pt    0.00059   -0.11965    0.44470
 13 Pt    0.02477   -0.01341    0.00965
 14 Pt   -0.02581   -0.01592    0.01406
 15 Pt    0.11066    0.06397    0.43369
 16 Pt   -0.00489   -0.04305   -0.31270
 17 Pt   -0.10289    0.06016    0.44419
 18 Pt   -0.91847   -0.54055    0.20234
 19 Pt    0.89354   -0.52189    0.20683
 20 Pt    0.00926   -0.03378    0.00607
 21 Pt    0.00373    1.04267    0.18822
 22 Pt    0.38210    0.22222   -0.04804
 23 Pt   -0.37861    0.22324   -0.05838
 24 Pt   -0.02406    0.02351    0.00575
 25 Pt    0.00263   -0.42930   -0.04863
 26 Pt    0.03505    0.01924   -0.00774
 27 O     0.00060    0.00645    0.00246

System changes: positions 

Initializing position-dependent things.

Density initialized from wave functions
                                            
                                            
                                            
                                            
                                            
                                            
                 Pt     Pt     Pt           
           OPt     Pt     Pt                
                  Pt     Pt    Pt           
       Pt    PPt    PPt    Pt               
                                            
        Pt     Pt    PPt    Pt    Pt        
                                            
                Pt     Pt     Pt            
           Pt     Pt     Pt                 
                                            
                                            
                                            
                                            

Positions:
   0 Pt     1.403607    0.810373    6.000000    ( 0.0000,  0.0000,  0.0000)
   1 Pt     4.210821    0.810373    6.000000    ( 0.0000,  0.0000,  0.0000)
   2 Pt     7.018035    0.810373    6.000000    ( 0.0000,  0.0000,  0.0000)
   3 Pt     2.807214    3.241491    6.000000    ( 0.0000,  0.0000,  0.0000)
   4 Pt     5.614428    3.241491    6.000000    ( 0.0000,  0.0000,  0.0000)
   5 Pt     8.421642    3.241491    6.000000    ( 0.0000,  0.0000,  0.0000)
   6 Pt     4.210821    5.672610    6.000000    ( 0.0000,  0.0000,  0.0000)
   7 Pt     7.018035    5.672610    6.000000    ( 0.0000,  0.0000,  0.0000)
   8 Pt     9.825249    5.672610    6.000000    ( 0.0000,  0.0000,  0.0000)
   9 Pt    -0.000000    1.620746    8.292081    ( 0.0000,  0.0000,  0.0000)
  10 Pt     2.807214    1.620746    8.292081    ( 0.0000,  0.0000,  0.0000)
  11 Pt     5.614428    1.620746    8.292081    ( 0.0000,  0.0000,  0.0000)
  12 Pt     1.403607    4.051864    8.292081    ( 0.0000,  0.0000,  0.0000)
  13 Pt     4.210821    4.051864    8.292081    ( 0.0000,  0.0000,  0.0000)
  14 Pt     7.018035    4.051864    8.292081    ( 0.0000,  0.0000,  0.0000)
  15 Pt     2.807214    6.482983    8.292081    ( 0.0000,  0.0000,  0.0000)
  16 Pt     5.614428    6.482983    8.292081    ( 0.0000,  0.0000,  0.0000)
  17 Pt     8.421642    6.482983    8.292081    ( 0.0000,  0.0000,  0.0000)
  18 Pt     0.000000    0.000000   10.584161    ( 0.0000,  0.0000,  0.0000)
  19 Pt     2.807214    0.000000   10.584161    ( 0.0000,  0.0000,  0.0000)
  20 Pt     5.614428    0.000000   10.584161    ( 0.0000,  0.0000,  0.0000)
  21 Pt     1.403607    2.431119   10.584161    ( 0.0000,  0.0000,  0.0000)
  22 Pt     4.210821    2.431119   10.584161    ( 0.0000,  0.0000,  0.0000)
  23 Pt     7.018035    2.431119   10.584161    ( 0.0000,  0.0000,  0.0000)
  24 Pt     2.807214    4.862237   10.584161    ( 0.0000,  0.0000,  0.0000)
  25 Pt     5.614428    4.862237   10.584161    ( 0.0000,  0.0000,  0.0000)
  26 Pt     8.421642    4.862237   10.584161    ( 0.0000,  0.0000,  0.0000)
  27 O      1.404244    0.811603   11.838322    ( 0.0000,  0.0000,  0.0000)

Unit cell:
           periodic     x           y           z      points  spacing
  1. axis:    yes    8.421642    0.000000    0.000000    42     0.1737
  2. axis:    yes    4.210821    7.293356    0.000000    42     0.1737
  3. axis:    no     0.000000    0.000000   16.584161    84     0.1974

  Lengths:   8.421642   8.421642  16.584161
  Angles:   90.000000  90.000000  60.000000

Effective grid spacing dv^(1/3) = 0.1901

     iter     time        total  log10-change:
                         energy  eigst   dens
iter:   1 19:45:04  -167.219276  -5.71
iter:   2 19:45:12  -167.223270  -5.06  -3.49
iter:   3 19:45:21  -167.217944c -5.62  -3.28
iter:   4 19:45:29  -167.217999c -7.14  -4.44c
iter:   5 19:45:38  -167.218038c -7.83c -4.71c

Converged after 5 iterations.

Dipole moment: (-1.856133, -1.066856, -0.053277) |e|*Ang

Energy contributions relative to reference atoms: (reference = -13512175.647022)

Kinetic:       -298.963583
Potential:     +228.749479
External:        +0.000000
XC:             -81.442135
Entropy (-ST):   -1.707638
Local:          -14.707980
--------------------------
Free energy:   -168.071857
Extrapolated:  -167.218038

Showing only first 2 kpts
 Kpt  Band  Eigenvalues  Occupancy
  0   217      1.37271    1.19091
  0   218      1.49559    0.60210
  0   219      1.54085    0.43006
  0   220      1.57013    0.33941

  1   217      1.29602    1.52029
  1   218      1.33961    1.34414
  1   219      1.36406    1.23222
  1   220      1.37548    1.17753


Fermi level: 1.41136

No gap

Forces in eV/Ang:
  0 Pt   -0.00568   -0.00301   -0.02175
  1 Pt    0.02861    0.01364   -0.05887
  2 Pt   -0.02943    0.01263   -0.06727
  3 Pt    0.02582    0.01820   -0.05888
  4 Pt    0.00079    0.00024   -0.08768
  5 Pt   -0.02884    0.02600   -0.06827
  6 Pt   -0.00428   -0.03183   -0.06741
  7 Pt    0.00825   -0.03815   -0.06840
  8 Pt   -0.00611   -0.00377   -0.36412
  9 Pt   -0.04335    0.01720   -0.31662
 10 Pt    0.04623    0.02482   -0.31986
 11 Pt    0.00177    0.02706    0.00856
 12 Pt    0.00057   -0.12014    0.44342
 13 Pt    0.02505   -0.01177    0.00856
 14 Pt   -0.02607   -0.01440    0.01300
 15 Pt    0.11364    0.06563    0.43653
 16 Pt   -0.00514   -0.04592   -0.31595
 17 Pt   -0.10573    0.06172    0.44674
 18 Pt   -0.94868   -0.54029    0.19625
 19 Pt    0.92370   -0.52042    0.20221
 20 Pt    0.00934   -0.03272    0.01224
 21 Pt    0.00469    1.05916    0.20851
 22 Pt    0.38078    0.21848   -0.03898
 23 Pt   -0.37819    0.21982   -0.05025
 24 Pt   -0.02374    0.02569    0.01257
 25 Pt    0.00247   -0.44261   -0.05557
 26 Pt    0.03488    0.02135   -0.00088
 27 O     0.00127    0.01589   -0.00166

Timing:                                      incl.     excl.
-------------------------------------------------------------------
Density initialized from wave functions:     6.408     6.408   0.5% |
 Symmetrize density:                         0.000     0.000   0.0% |
Forces:                                     33.175    33.175   2.3% ||
Hamiltonian:                                 6.662     0.045   0.0% |
 Atomic:                                     1.465     0.751   0.1% |
  XC Correction:                             0.714     0.714   0.1% |
 Calculate atomic Hamiltonians:              2.912     2.912   0.2% |
 Communicate:                                0.017     0.017   0.0% |
 Initialize Hamiltonian:                     0.001     0.001   0.0% |
 Poisson:                                    0.029     0.029   0.0% |
 XC 3D grid:                                 2.193     2.193   0.2% |
LCAO initialization:                        15.539     0.189   0.0% |
 LCAO eigensolver:                           2.281     0.000   0.0% |
  Calculate projections:                     0.004     0.004   0.0% |
  DenseAtomicCorrection:                     0.005     0.005   0.0% |
  Distribute overlap matrix:                 0.232     0.232   0.0% |
  Orbital Layouts:                           0.072     0.072   0.0% |
  Potential matrix:                          1.938     1.938   0.1% |
  Sum over cells:                            0.029     0.029   0.0% |
 LCAO to grid:                              12.540    12.540   0.9% |
 Set positions (LCAO WFS):                   0.529     0.261   0.0% |
  Basic WFS set positions:                   0.001     0.001   0.0% |
  Basis functions set positions:             0.000     0.000   0.0% |
  P tci:                                     0.134     0.134   0.0% |
  ST tci:                                    0.103     0.103   0.0% |
  mktci:                                     0.030     0.030   0.0% |
PWDescriptor:                                0.020     0.020   0.0% |
Redistribute:                                0.014     0.014   0.0% |
SCF-cycle:                                1347.064     2.892   0.2% |
 Davidson:                                1130.091   202.643  14.3% |-----|
  Apply H:                                 116.706   113.524   8.0% |--|
   HMM T:                                    3.182     3.182   0.2% |
  Subspace diag:                           199.383     0.022   0.0% |
   calc_h_matrix:                          145.028    28.249   2.0% ||
    Apply H:                               116.778   113.544   8.0% |--|
     HMM T:                                  3.235     3.235   0.2% |
   diagonalize:                              5.715     5.715   0.4% |
   rotate_psi:                              48.619    48.619   3.4% ||
  calc. matrices:                          414.356   180.696  12.7% |----|
   Apply H:                                233.659   227.306  16.0% |-----|
    HMM T:                                   6.354     6.354   0.4% |
  diagonalize:                             105.197   105.197   7.4% |--|
  rotate_psi:                               91.808    91.808   6.5% |--|
 Density:                                  108.939     0.005   0.0% |
  Atomic density matrices:                   0.636     0.636   0.0% |
  Mix:                                      49.501    49.501   3.5% ||
  Multipole moments:                         0.063     0.063   0.0% |
  Pseudo density:                           58.734    58.731   4.1% |-|
   Symmetrize density:                       0.004     0.004   0.0% |
 Hamiltonian:                               99.752     0.654   0.0% |
  Atomic:                                   21.771    11.015   0.8% |
   XC Correction:                           10.757    10.757   0.8% |
  Calculate atomic Hamiltonians:            43.466    43.466   3.1% ||
  Communicate:                               0.518     0.518   0.0% |
  Poisson:                                   0.475     0.475   0.0% |
  XC 3D grid:                               32.868    32.868   2.3% ||
 Orthonormalize:                             5.390     0.002   0.0% |
  calc_s_matrix:                             0.866     0.866   0.1% |
  inverse-cholesky:                          0.166     0.166   0.0% |
  projections:                               2.785     2.785   0.2% |
  rotate_psi_s:                              1.570     1.570   0.1% |
Set symmetry:                                0.001     0.001   0.0% |
Other:                                       9.876     9.876   0.7% |
-------------------------------------------------------------------
Total:                                              1418.758 100.0%

Memory usage: 885.53 MiB
Date: Wed Feb 22 19:45:42 2023
