29
Lattice="8.421641763931781 0.0 0.0 4.2108208819658905 7.293355709136913 0.0 0.0 0.0 16.584161137365626" Properties=species:S:1:pos:R:3:tags:I:1:forces:R:3:magmoms:R:1 energy=-176.79241910175253 dipole="-1.1680430753758575 -0.14793142476418697 -0.01618775229086543" magmom=0.0 free_energy=-177.67359390159567 pbc="T T F"
Pt       1.40360696       0.81037286       6.00000000        3      -0.00354912       0.01608234       0.00639024       0.00000000
Pt       4.21082088       0.81037286       6.00000000        3       0.00505395       0.00081792      -0.03793839       0.00000000
Pt       7.01803480       0.81037286       6.00000000        3       0.00082031       0.00337686      -0.04041929       0.00000000
Pt       2.80721392       3.24149143       6.00000000        3       0.00542038       0.00322988      -0.10744409       0.00000000
Pt       5.61442784       3.24149143       6.00000000        3      -0.00216940      -0.00072426      -0.06423281       0.00000000
Pt       8.42164176       3.24149143       6.00000000        3      -0.01199842       0.00481216      -0.10966610       0.00000000
Pt       4.21082088       5.67261000       6.00000000        3      -0.01937270      -0.00871524      -0.05641093       0.00000000
Pt       7.01803480       5.67261000       6.00000000        3       0.02530382      -0.00965570      -0.06071561       0.00000000
Pt       9.82524872       5.67261000       6.00000000        3      -0.01219787      -0.00428324      -0.14688030       0.00000000
Pt      -0.00000000       1.62074571       8.29208057        2      -0.01387023       0.01257113      -0.04944877       0.00000000
Pt       2.80721392       1.62074571       8.29208057        2       0.01568036       0.02109426      -0.04145516       0.00000000
Pt       5.61442784       1.62074571       8.29208057        2       0.00162803       0.01427967       0.00742815       0.00000000
Pt       1.40360696       4.05186428       8.29208057        2       0.00541624      -0.04853558      -0.04716217       0.00000000
Pt       4.21082088       4.05186428       8.29208057        2       0.01959483       0.01733405      -0.00066725       0.00000000
Pt       7.01803480       4.05186428       8.29208057        2      -0.02681161       0.02024441      -0.00096637       0.00000000
Pt       2.80721392       6.48298285       8.29208057        2       0.11407407       0.07087552       0.15628065       0.00000000
Pt       5.61442784       6.48298285       8.29208057        2      -0.00026839      -0.09145170      -0.28539185       0.00000000
Pt       8.42164176       6.48298285       8.29208057        2      -0.11395610       0.07549185       0.17740877       0.00000000
Pt       0.00000000       0.00000000      10.58416114        1       0.36457530      -0.04143659       1.45178643       0.00000000
Pt       2.80721392       0.00000000      10.58416114        1      -0.35458970      -0.04512351       1.43792576       0.00000000
Pt       5.61442784       0.00000000      10.58416114        1       0.00082407      -0.00509861       0.00354362       0.00000000
Pt       1.40360696       2.43111857      10.58416114        1      -0.00722060       0.33919688       0.01028087       0.00000000
Pt       4.21082088       2.43111857      10.58416114        1       0.08591176       0.08740567       0.02224025       0.00000000
Pt       7.01803480       2.43111857      10.58416114        1      -0.08447679       0.08311729       0.02142161       0.00000000
Pt       2.80721392       4.86223714      10.58416114        1      -0.07314948      -0.07221436       0.01857271       0.00000000
Pt       5.61442784       4.86223714      10.58416114        1       0.00515065      -0.37727452       0.00002650       0.00000000
Pt       8.42164176       4.86223714      10.58416114        1       0.07482859      -0.07012712       0.01743830       0.00000000
O        1.40360696       0.00000000      13.73450114        0      -0.00030063       0.00371689      -2.23386402       0.00000000
C        1.40356983       0.00048314      12.55405208        0      -0.00028566       0.00139689       0.01758906       0.00000000
