29
Lattice="8.421641763931781 0.0 0.0 4.2108208819658905 7.293355709136913 0.0 0.0 0.0 16.584161137365626" Properties=species:S:1:pos:R:3:tags:I:1:forces:R:3:magmoms:R:1 energy=-176.6557300727581 dipole="-0.6471487387611176 -0.3736314985295027 -0.034801227370280255" magmom=0.0 free_energy=-177.53694133780022 pbc="T T F"
Pt       1.40360696       0.81037286       6.00000000        3      -0.02114103      -0.01220578      -0.03591914       0.00000000
Pt       4.21082088       0.81037286       6.00000000        3       0.02176277      -0.01468545      -0.04219714       0.00000000
Pt       7.01803480       0.81037286       6.00000000        3      -0.00673233       0.00945777      -0.12642008       0.00000000
Pt       2.80721392       3.24149143       6.00000000        3      -0.00183658       0.02618984      -0.04219714       0.00000000
Pt       5.61442784       3.24149143       6.00000000        3       0.00081654       0.00047143      -0.04309449       0.00000000
Pt       8.42164176       3.24149143       6.00000000        3       0.00413730       0.00232634      -0.04840108       0.00000000
Pt       4.21082088       5.67261000       6.00000000        3       0.00482450      -0.01055926      -0.12642008       0.00000000
Pt       7.01803480       5.67261000       6.00000000        3       0.00408332       0.00241984      -0.04840108       0.00000000
Pt       9.82524872       5.67261000       6.00000000        3      -0.01752744      -0.01011947      -0.11994008       0.00000000
Pt      -0.00000000       1.62074571       8.29208057        2       0.05163951       0.02069142       0.03872527       0.00000000
Pt       2.80721392       1.62074571       8.29208057        2      -0.00140940      -0.00081372      -0.27810134       0.00000000
Pt       5.61442784       1.62074571       8.29208057        2      -0.04731009       0.02350377       0.05693144       0.00000000
Pt       1.40360696       4.05186428       8.29208057        2       0.00524450      -0.06706397       0.04625977       0.00000000
Pt       4.21082088       4.05186428       8.29208057        2      -0.00330018      -0.05272362       0.05693144       0.00000000
Pt       7.01803480       4.05186428       8.29208057        2      -0.00272529      -0.00157345       0.01077426       0.00000000
Pt       2.80721392       6.48298285       8.29208057        2       0.00425312       0.00245554      -0.08456711       0.00000000
Pt       5.61442784       6.48298285       8.29208057        2       0.04373905       0.03437542       0.03872527       0.00000000
Pt       8.42164176       6.48298285       8.29208057        2      -0.05545686       0.03807386       0.04625977       0.00000000
Pt       0.00000000       0.00000000      10.58416114        1      -0.15423986      -0.08905042       0.00544993       0.00000000
Pt       2.80721392       0.00000000      10.58416114        1       0.01067510       0.16426365       0.92415761       0.00000000
Pt       5.61442784       0.00000000      10.58416114        1       0.15234496      -0.09332800      -0.00296609       0.00000000
Pt       1.40360696       2.43111857      10.58416114        1       0.14759404      -0.07288692       0.92415761       0.00000000
Pt       4.21082088       2.43111857      10.58416114        1      -0.13827141      -0.07983104       0.92208953       0.00000000
Pt       7.01803480       2.43111857      10.58416114        1       0.00320602       0.01290182       0.02863760       0.00000000
Pt       2.80721392       4.86223714      10.58416114        1      -0.00465194       0.17859861      -0.00296609       0.00000000
Pt       5.61442784       4.86223714      10.58416114        1       0.01277632      -0.00367442       0.02863760       0.00000000
Pt       8.42164176       4.86223714      10.58416114        1      -0.01268567      -0.00732408       0.03134455       0.00000000
O        2.80721392       1.62074571      13.73450114        0       0.00005401       0.00003118      -2.06335097       0.00000000
C        2.80727104       1.62077869      12.55492501        0       0.00091048       0.00052567       0.03436892       0.00000000
