29
Lattice="8.421641763931781 0.0 0.0 4.2108208819658905 7.293355709136913 0.0 0.0 0.0 16.584161137365626" Properties=species:S:1:pos:R:3:tags:I:1:forces:R:3:magmoms:R:1 energy=-176.6584170453707 dipole="-5.533008687282989 -3.194484055031398 -0.03598602334811737" magmom=0.0 free_energy=-177.5370509528276 pbc="T T F"
Pt       1.40360696       0.81037286       6.00000000        3      -0.00326411      -0.00188454       0.02295184       0.00000000
Pt       4.21082088       0.81037286       6.00000000        3       0.00714873      -0.01146645      -0.06725917       0.00000000
Pt       7.01803480       0.81037286       6.00000000        3      -0.00788813      -0.00653718      -0.06593126       0.00000000
Pt       2.80721392       3.24149143       6.00000000        3      -0.00635587       0.01192421      -0.06725917       0.00000000
Pt       5.61442784       3.24149143       6.00000000        3      -0.00258411      -0.00149194      -0.06005345       0.00000000
Pt       8.42164176       3.24149143       6.00000000        3       0.00684111       0.01724853      -0.07257425       0.00000000
Pt       4.21082088       5.67261000       6.00000000        3      -0.00960543      -0.00356273      -0.06593126       0.00000000
Pt       7.01803480       5.67261000       6.00000000        3       0.01835822      -0.00269969      -0.07257425       0.00000000
Pt       9.82524872       5.67261000       6.00000000        3      -0.01916974      -0.01106765      -0.14350893       0.00000000
Pt      -0.00000000       1.62074571       8.29208057        2      -0.05032476       0.02904909      -0.17928016       0.00000000
Pt       2.80721392       1.62074571       8.29208057        2       0.05352792       0.03090436      -0.17159304       0.00000000
Pt       5.61442784       1.62074571       8.29208057        2       0.00205341       0.01399306       0.00084094       0.00000000
Pt       1.40360696       4.05186428       8.29208057        2       0.00575677      -0.14267443       0.13259638       0.00000000
Pt       4.21082088       4.05186428       8.29208057        2       0.01314505      -0.00521823       0.00084094       0.00000000
Pt       7.01803480       4.05186428       8.29208057        2      -0.01649304      -0.00952226      -0.00085125       0.00000000
Pt       2.80721392       6.48298285       8.29208057        2       0.12017919       0.06938549       0.11301398       0.00000000
Pt       5.61442784       6.48298285       8.29208057        2      -0.00000513      -0.05810707      -0.17928016       0.00000000
Pt       8.42164176       6.48298285       8.29208057        2      -0.12068129       0.07632272       0.13259638       0.00000000
Pt       0.00000000       0.00000000      10.58416114        1       0.12191804       0.07038941       0.97734613       0.00000000
Pt       2.80721392       0.00000000      10.58416114        1      -0.11631665       0.06680786       0.96075172       0.00000000
Pt       5.61442784       0.00000000      10.58416114        1      -0.00111040      -0.00715723       0.01762124       0.00000000
Pt       1.40360696       2.43111857      10.58416114        1      -0.00030102      -0.13413710       0.96075172       0.00000000
Pt       4.21082088       2.43111857      10.58416114        1       0.18905775       0.10915254       0.00443085       0.00000000
Pt       7.01803480       2.43111857      10.58416114        1      -0.18616428       0.10995488       0.00037867       0.00000000
Pt       2.80721392       4.86223714      10.58416114        1      -0.00675355       0.00261698       0.01762124       0.00000000
Pt       5.61442784       4.86223714      10.58416114        1       0.00214158      -0.21620044       0.00037867       0.00000000
Pt       8.42164176       4.86223714      10.58416114        1       0.00624798       0.00360727       0.02204805       0.00000000
O        1.40360696       0.81037286      13.73450114        0      -0.00058058      -0.00033520      -2.07411382       0.00000000
C        1.40362720       0.81038454      12.55448168        0       0.00031042       0.00017922      -0.00661194       0.00000000
