29
Lattice="8.421641763931781 0.0 0.0 4.2108208819658905 7.293355709136913 0.0 0.0 0.0 16.584161137365626" Properties=species:S:1:pos:R:3:tags:I:1:forces:R:3:magmoms:R:1 energy=-176.79242080973415 dipole="-1.170476893558647 -0.15118506430288298 -0.016734637953745926" magmom=0.0 free_energy=-177.67360123366632 pbc="T T F"
Pt       1.40360696       0.81037286       6.00000000        3      -0.00357726       0.01565798       0.00528829       0.00000000
Pt       4.21082088       0.81037286       6.00000000        3       0.00504843       0.00032823      -0.03862093       0.00000000
Pt       7.01803480       0.81037286       6.00000000        3       0.00087944       0.00292853      -0.04117346       0.00000000
Pt       2.80721392       3.24149143       6.00000000        3       0.00543854       0.00321642      -0.10734184       0.00000000
Pt       5.61442784       3.24149143       6.00000000        3      -0.00213985      -0.00085591      -0.06419293       0.00000000
Pt       8.42164176       3.24149143       6.00000000        3      -0.01202232       0.00482463      -0.10964622       0.00000000
Pt       4.21082088       5.67261000       6.00000000        3      -0.01960853      -0.00817115      -0.05709378       0.00000000
Pt       7.01803480       5.67261000       6.00000000        3       0.02554794      -0.00916677      -0.06136984       0.00000000
Pt       9.82524872       5.67261000       6.00000000        3      -0.01220508      -0.00374621      -0.14773433       0.00000000
Pt      -0.00000000       1.62074571       8.29208057        2      -0.01427687       0.01252044      -0.04876629       0.00000000
Pt       2.80721392       1.62074571       8.29208057        2       0.01609480       0.02104984      -0.04071443       0.00000000
Pt       5.61442784       1.62074571       8.29208057        2       0.00164061       0.01469122       0.00738399       0.00000000
Pt       1.40360696       4.05186428       8.29208057        2       0.00538977      -0.04816257      -0.04736462       0.00000000
Pt       4.21082088       4.05186428       8.29208057        2       0.01940635       0.01704173      -0.00063668       0.00000000
Pt       7.01803480       4.05186428       8.29208057        2      -0.02659078       0.01996984      -0.00094916       0.00000000
Pt       2.80721392       6.48298285       8.29208057        2       0.11380617       0.07037551       0.15539654       0.00000000
Pt       5.61442784       6.48298285       8.29208057        2      -0.00025005      -0.09086409      -0.28241801       0.00000000
Pt       8.42164176       6.48298285       8.29208057        2      -0.11368493       0.07495606       0.17655543       0.00000000
Pt       0.00000000       0.00000000      10.58416114        1       0.36158545      -0.04146588       1.45291994       0.00000000
Pt       2.80721392       0.00000000      10.58416114        1      -0.35155579      -0.04514572       1.43898358       0.00000000
Pt       5.61442784       0.00000000      10.58416114        1       0.00075149      -0.00495281       0.00457520       0.00000000
Pt       1.40360696       2.43111857      10.58416114        1      -0.00720632       0.33717097       0.01487628       0.00000000
Pt       4.21082088       2.43111857      10.58416114        1       0.08599437       0.08746413       0.02520953       0.00000000
Pt       7.01803480       2.43111857      10.58416114        1      -0.08461058       0.08324878       0.02431388       0.00000000
Pt       2.80721392       4.86223714      10.58416114        1      -0.07296153      -0.07220848       0.02111933       0.00000000
Pt       5.61442784       4.86223714      10.58416114        1       0.00518259      -0.37560946       0.00453088       0.00000000
Pt       8.42164176       4.86223714      10.58416114        1       0.07459901      -0.07009794       0.02008564       0.00000000
O        1.40360696       0.00000000      13.73450114        0      -0.00035436       0.00387186      -2.23703058       0.00000000
C        1.40355815       0.00053874      12.55438755        0      -0.00032329       0.00135074      -0.00002220       0.00000000
