29
Lattice="8.421641763931781 0.0 0.0 4.2108208819658905 7.293355709136913 0.0 0.0 0.0 16.584161137365626" Properties=species:S:1:pos:R:3:tags:I:1:forces:R:3:magmoms:R:1 energy=-177.44097094891453 dipole="-0.20280710975400776 -0.11709073941004801 0.14419266016537463" magmom=0.0 free_energy=-178.31939143527532 pbc="T T F"
Pt       1.40360696       0.81037286       6.00000000        3       0.00975873       0.00563421      -0.01075655       0.00000000
Pt       4.21082088       0.81037286       6.00000000        3       0.00000000       0.01059475      -0.07136604       0.00000000
Pt       7.01803480       0.81037286       6.00000000        3      -0.00975873       0.00563421      -0.01075655       0.00000000
Pt       2.80721392       3.24149143       6.00000000        3       0.00917533      -0.00529738      -0.07136604       0.00000000
Pt       5.61442784       3.24149143       6.00000000        3      -0.00917533      -0.00529738      -0.07136604       0.00000000
Pt       8.42164176       3.24149143       6.00000000        3      -0.00000000       0.02400271      -0.15402106       0.00000000
Pt       4.21082088       5.67261000       6.00000000        3       0.00000000      -0.01126841      -0.01075655       0.00000000
Pt       7.01803480       5.67261000       6.00000000        3       0.02078695      -0.01200135      -0.15402106       0.00000000
Pt       9.82524872       5.67261000       6.00000000        3      -0.02078695      -0.01200135      -0.15402106       0.00000000
Pt      -0.00000000       1.62074571       8.29208057        2      -0.00000000      -0.00381953       0.04451769       0.00000000
Pt       2.80721392       1.62074571       8.29208057        2       0.01871455       0.01080485      -0.00611984       0.00000000
Pt       5.61442784       1.62074571       8.29208057        2      -0.01871455       0.01080485      -0.00611984       0.00000000
Pt       1.40360696       4.05186428       8.29208057        2       0.01035524      -0.00597860      -0.04168999       0.00000000
Pt       4.21082088       4.05186428       8.29208057        2      -0.00000000      -0.02160970      -0.00611984       0.00000000
Pt       7.01803480       4.05186428       8.29208057        2      -0.01035524      -0.00597860      -0.04168999       0.00000000
Pt       2.80721392       6.48298285       8.29208057        2       0.00330781       0.00190976       0.04451769       0.00000000
Pt       5.61442784       6.48298285       8.29208057        2      -0.00330781       0.00190976       0.04451769       0.00000000
Pt       8.42164176       6.48298285       8.29208057        2      -0.00000000       0.01195720      -0.04168999       0.00000000
Pt       0.00000000       0.00000000      10.58416114        1       0.00000000      -0.00000000       2.70457989       0.00000000
Pt       2.80721392       0.00000000      10.58416114        1       0.37722524      -0.00045122      -0.02461656       0.00000000
Pt       5.61442784       0.00000000      10.58416114        1      -0.37722524      -0.00045122      -0.02461656       0.00000000
Pt       1.40360696       2.43111857      10.58416114        1       0.18822185       0.32691225      -0.02461656       0.00000000
Pt       4.21082088       2.43111857      10.58416114        1       0.00000000      -0.00000000       0.05481376       0.00000000
Pt       7.01803480       2.43111857      10.58416114        1      -0.18822185       0.32691225      -0.02461656       0.00000000
Pt       2.80721392       4.86223714      10.58416114        1      -0.18900339      -0.32646103      -0.02461656       0.00000000
Pt       5.61442784       4.86223714      10.58416114        1       0.18900339      -0.32646103      -0.02461656       0.00000000
Pt       8.42164176       4.86223714      10.58416114        1       0.00000000      -0.00000000       0.05414155       0.00000000
O        0.00000000       0.00000000      13.73450114        0       0.00000000       0.00000000      -1.89403623       0.00000000
C        0.00000000       0.00000000      12.56528493        0      -0.00000000      -0.00000000       0.00322118       0.00000000
