29
Lattice="8.421641763931781 0.0 0.0 4.2108208819658905 7.293355709136913 0.0 0.0 0.0 16.584161137365626" Properties=species:S:1:pos:R:3:tags:I:1:forces:R:3:magmoms:R:1 energy=-177.44103182881864 dipole="-0.20258305298443818 -0.11696138017382768 0.14388278634206758" magmom=0.0 free_energy=-178.319386207888 pbc="T T F"
Pt       1.40360696       0.81037286       6.00000000        3       0.01006751       0.00581248      -0.01043374       0.00000000
Pt       4.21082088       0.81037286       6.00000000        3       0.00000000       0.01070869      -0.07087280       0.00000000
Pt       7.01803480       0.81037286       6.00000000        3      -0.01006751       0.00581248      -0.01043374       0.00000000
Pt       2.80721392       3.24149143       6.00000000        3       0.00927399      -0.00535434      -0.07087280       0.00000000
Pt       5.61442784       3.24149143       6.00000000        3      -0.00927399      -0.00535434      -0.07087280       0.00000000
Pt       8.42164176       3.24149143       6.00000000        3       0.00000000       0.02461531      -0.15397433       0.00000000
Pt       4.21082088       5.67261000       6.00000000        3       0.00000000      -0.01162495      -0.01043374       0.00000000
Pt       7.01803480       5.67261000       6.00000000        3       0.02131748      -0.01230765      -0.15397433       0.00000000
Pt       9.82524872       5.67261000       6.00000000        3      -0.02131748      -0.01230765      -0.15397433       0.00000000
Pt      -0.00000000       1.62074571       8.29208057        2      -0.00000000      -0.00629042       0.04805685       0.00000000
Pt       2.80721392       1.62074571       8.29208057        2       0.01901836       0.01098025      -0.00522769       0.00000000
Pt       5.61442784       1.62074571       8.29208057        2      -0.01901836       0.01098025      -0.00522769       0.00000000
Pt       1.40360696       4.05186428       8.29208057        2       0.01017781      -0.00587616      -0.04111559       0.00000000
Pt       4.21082088       4.05186428       8.29208057        2      -0.00000000      -0.02196051      -0.00522769       0.00000000
Pt       7.01803480       4.05186428       8.29208057        2      -0.01017781      -0.00587616      -0.04111559       0.00000000
Pt       2.80721392       6.48298285       8.29208057        2       0.00544767       0.00314521       0.04805685       0.00000000
Pt       5.61442784       6.48298285       8.29208057        2      -0.00544767       0.00314521       0.04805685       0.00000000
Pt       8.42164176       6.48298285       8.29208057        2       0.00000000       0.01175232      -0.04111559       0.00000000
Pt       0.00000000       0.00000000      10.58416114        1      -0.00000000       0.00000000       2.72549997       0.00000000
Pt       2.80721392       0.00000000      10.58416114        1       0.37479939      -0.00046530      -0.02531437       0.00000000
Pt       5.61442784       0.00000000      10.58416114        1      -0.37479939      -0.00046530      -0.02531437       0.00000000
Pt       1.40360696       2.43111857      10.58416114        1       0.18699674       0.32481845      -0.02531437       0.00000000
Pt       4.21082088       2.43111857      10.58416114        1       0.00000000      -0.00000000       0.05573456       0.00000000
Pt       7.01803480       2.43111857      10.58416114        1      -0.18699674       0.32481845      -0.02531437       0.00000000
Pt       2.80721392       4.86223714      10.58416114        1      -0.18780266      -0.32435315      -0.02531437       0.00000000
Pt       5.61442784       4.86223714      10.58416114        1       0.18780266      -0.32435315      -0.02531437       0.00000000
Pt       8.42164176       4.86223714      10.58416114        1       0.00000000      -0.00000000       0.05518447       0.00000000
O        0.00000000       0.00000000      13.73450114        0       0.00000000      -0.00000000      -1.89502385       0.00000000
C       -0.00000000      -0.00000000      12.56510028        0      -0.00000000       0.00000000       0.01584101       0.00000000
