29
Lattice="8.421641763931781 0.0 0.0 4.2108208819658905 7.293355709136913 0.0 0.0 0.0 16.584161137365626" Properties=species:S:1:pos:R:3:tags:I:1:forces:R:3:magmoms:R:1 energy=-177.77412383870256 dipole="-0.014028517484195605 -0.00809936660695275 0.09718013966110393" magmom=0.0 free_energy=-178.63191675796432 pbc="T T F"
Pt       1.39756868       0.80688665       6.02389314        3       0.00102553       0.00059209       0.00161920       0.00000000
Pt       4.21082088       0.81208527       5.96634449        3      -0.00000000       0.00052122       0.00167026       0.00000000
Pt       7.02407309       0.80688665       6.02389314        3      -0.00102553       0.00059209       0.00161920       0.00000000
Pt       2.80869692       3.24063522       5.96634449        3       0.00045139      -0.00026061       0.00167026       0.00000000
Pt       5.61294485       3.24063522       5.96634449        3      -0.00045139      -0.00026061       0.00167026       0.00000000
Pt       8.42164176       3.23919462       5.95615555        3       0.00000000       0.00199855      -0.00009449       0.00000000
Pt       4.21082088       5.67958240       6.02389314        3      -0.00000000      -0.00118418       0.00161920       0.00000000
Pt       7.01604571       5.67375840       5.95615555        3       0.00173080      -0.00099928      -0.00009449       0.00000000
Pt       9.82723781       5.67375840       5.95615555        3      -0.00173080      -0.00099928      -0.00009449       0.00000000
Pt      -0.00000000       1.60958967       8.34471075        2       0.00000000      -0.00095192      -0.00266136       0.00000000
Pt       2.81112340       1.62300285       8.27923979        2       0.00021620       0.00012483       0.00243128       0.00000000
Pt       5.61051837       1.62300285       8.27923979        2      -0.00021620       0.00012483       0.00243128       0.00000000
Pt       1.40147266       4.05309652       8.24958098        2       0.00052201      -0.00030138       0.00192434       0.00000000
Pt       4.21082088       4.04735001       8.27923979        2       0.00000000      -0.00024965       0.00243128       0.00000000
Pt       7.02016910       4.05309652       8.24958098        2      -0.00052201      -0.00030138       0.00192434       0.00000000
Pt       2.81687534       6.48856088       8.34471075        2       0.00082439       0.00047596      -0.00266136       0.00000000
Pt       5.60476642       6.48856088       8.34471075        2      -0.00082439       0.00047596      -0.00266136       0.00000000
Pt       8.42164176       6.48051838       8.24958098        2       0.00000000       0.00060276       0.00192434       0.00000000
Pt      -0.00000000      -0.00000000      10.77986571        1       0.00000000      -0.00000000      -0.00862097       0.00000000
Pt       2.84134115      -0.00065832      10.57721144        1      -0.00125972      -0.00024273       0.00396749       0.00000000
Pt       5.58030062      -0.00065832      10.57721144        1       0.00125972      -0.00024273       0.00396749       0.00000000
Pt       1.42010045       2.46100277      10.57721144        1      -0.00084007      -0.00096958       0.00396749       0.00000000
Pt       4.21082088       2.43111857      10.58845321        1       0.00000000       0.00000000       0.00063093       0.00000000
Pt       7.00154131       2.46100278      10.57721144        1       0.00084007      -0.00096958       0.00396749       0.00000000
Pt       2.78958019       4.83301125      10.57721144        1       0.00041965       0.00121232       0.00396749       0.00000000
Pt       5.63206158       4.83301125      10.57721144        1      -0.00041965       0.00121232       0.00396749       0.00000000
Pt       8.42164176       4.86223714      10.56679310        1       0.00000000       0.00000000       0.00145201       0.00000000
O        0.00000000       0.00000000      13.77504252        0      -0.00000000      -0.00000000      -0.00716723       0.00000000
C       -0.00000000       0.00000000      12.61996386        0      -0.00000000      -0.00000000      -0.00721133       0.00000000
