29
Lattice="8.421641763931781 0.0 0.0 4.2108208819658905 7.293355709136913 0.0 0.0 0.0 16.584161137365626" Properties=species:S:1:pos:R:3:tags:I:1:forces:R:3:magmoms:R:1 energy=-176.65572463573884 dipole="-0.6513100449999655 -0.3760340298066665 -0.03221973194397953" magmom=0.0 free_energy=-177.53697045873076 pbc="T T F"
Pt       1.40360696       0.81037286       6.00000000        3      -0.02058199      -0.01188301      -0.04010873       0.00000000
Pt       4.21082088       0.81037286       6.00000000        3       0.02121378      -0.01439179      -0.04634668       0.00000000
Pt       7.01803480       0.81037286       6.00000000        3      -0.00670710       0.00921035      -0.12999723       0.00000000
Pt       2.80721392       3.24149143       6.00000000        3      -0.00185677       0.02556756      -0.04634668       0.00000000
Pt       5.61442784       3.24149143       6.00000000        3       0.00080421       0.00046431      -0.04708056       0.00000000
Pt       8.42164176       3.24149143       6.00000000        3       0.00418002       0.00228008      -0.05246404       0.00000000
Pt       4.21082088       5.67261000       6.00000000        3       0.00462284      -0.01041369      -0.12999723       0.00000000
Pt       7.01803480       5.67261000       6.00000000        3       0.00406462       0.00247996      -0.05246404       0.00000000
Pt       9.82524872       5.67261000       6.00000000        3      -0.01721068      -0.00993659      -0.12353793       0.00000000
Pt      -0.00000000       1.62074571       8.29208057        2       0.05329764       0.02112198       0.04299838       0.00000000
Pt       2.80721392       1.62074571       8.29208057        2      -0.00143067      -0.00082600      -0.27370544       0.00000000
Pt       5.61442784       1.62074571       8.29208057        2      -0.04892812       0.02389711       0.06120123       0.00000000
Pt       1.40360696       4.05186428       8.29208057        2       0.00571156      -0.06865322       0.05049917       0.00000000
Pt       4.21082088       4.05186428       8.29208057        2      -0.00376855      -0.05432155       0.06120123       0.00000000
Pt       7.01803480       4.05186428       8.29208057        2      -0.00271034      -0.00156481       0.01377335       0.00000000
Pt       2.80721392       6.48298285       8.29208057        2       0.00422592       0.00243984      -0.07996629       0.00000000
Pt       5.61442784       6.48298285       8.29208057        2       0.04494099       0.03559612       0.04299838       0.00000000
Pt       8.42164176       6.48298285       8.29208057        2      -0.05659965       0.03927297       0.05049917       0.00000000
Pt       0.00000000       0.00000000      10.58416114        1      -0.15843097      -0.09147016      -0.00169922       0.00000000
Pt       2.80721392       0.00000000      10.58416114        1       0.01066846       0.14610619       0.91224292       0.00000000
Pt       5.61442784       0.00000000      10.58416114        1       0.15654398      -0.09573650      -0.01012640       0.00000000
Pt       1.40360696       2.43111857      10.58416114        1       0.13186590      -0.06381394       0.91224292       0.00000000
Pt       4.21082088       2.43111857      10.58416114        1      -0.12267057      -0.07082389       0.91049185       0.00000000
Pt       7.01803480       2.43111857      10.58416114        1       0.00321560       0.01342051       0.02176305       0.00000000
Pt       2.80721392       4.86223714      10.58416114        1      -0.00463826       0.18343931      -0.01012640       0.00000000
Pt       5.61442784       4.86223714      10.58416114        1       0.01323030      -0.00392546       0.02176305       0.00000000
Pt       8.42164176       4.86223714      10.58416114        1      -0.01322990      -0.00763829       0.02448221       0.00000000
O        2.80721392       1.62074571      13.73450114        0       0.00019448       0.00011228      -2.05192545       0.00000000
C        2.80734068       1.62081890      12.55564445        0       0.00086529       0.00049957       0.00451854       0.00000000
