27
Lattice="8.421641763931781 0.0 0.0 4.2108208819658905 7.293355709136913 0.0 0.0 0.0 16.584161137365626" Properties=species:S:1:pos:R:3:tags:I:1:magmoms:R:1 energy=-161.8134850625909 dipole="-0.17729890478270008 -0.10236357040346396 -3.127256084231768e-06" magmom=0.0 free_energy=-162.72403652444768 pbc="T T F"
Pt       1.40360696       0.81037286       6.00000000        3       0.00000000
Pt       4.21082088       0.81037286       6.00000000        3       0.00000000
Pt       7.01803480       0.81037286       6.00000000        3       0.00000000
Pt       2.80721392       3.24149143       6.00000000        3       0.00000000
Pt       5.61442784       3.24149143       6.00000000        3       0.00000000
Pt       8.42164176       3.24149143       6.00000000        3       0.00000000
Pt       4.21082088       5.67261000       6.00000000        3       0.00000000
Pt       7.01803480       5.67261000       6.00000000        3       0.00000000
Pt       9.82524872       5.67261000       6.00000000        3       0.00000000
Pt      -0.00000000       1.62074571       8.29208057        2       0.00000000
Pt       2.80721392       1.62074571       8.29208057        2       0.00000000
Pt       5.61442784       1.62074571       8.29208057        2       0.00000000
Pt       1.40360696       4.05186428       8.29208057        2       0.00000000
Pt       4.21082088       4.05186428       8.29208057        2       0.00000000
Pt       7.01803480       4.05186428       8.29208057        2       0.00000000
Pt       2.80721392       6.48298285       8.29208057        2       0.00000000
Pt       5.61442784       6.48298285       8.29208057        2       0.00000000
Pt       8.42164176       6.48298285       8.29208057        2       0.00000000
Pt       0.00000000       0.00000000      10.58416114        1       0.00000000
Pt       2.80721392       0.00000000      10.58416114        1       0.00000000
Pt       5.61442784       0.00000000      10.58416114        1       0.00000000
Pt       1.40360696       2.43111857      10.58416114        1       0.00000000
Pt       4.21082088       2.43111857      10.58416114        1       0.00000000
Pt       7.01803480       2.43111857      10.58416114        1       0.00000000
Pt       2.80721392       4.86223714      10.58416114        1       0.00000000
Pt       5.61442784       4.86223714      10.58416114        1       0.00000000
Pt       8.42164176       4.86223714      10.58416114        1       0.00000000
