28
Lattice="8.421641763931781 0.0 0.0 4.2108208819658905 7.293355709136913 0.0 0.0 0.0 16.584161137365626" Properties=species:S:1:pos:R:3:tags:I:1:forces:R:3:magmoms:R:1 energy=-167.21816927698842 dipole="-1.8579951045563483 -1.0727139737685971 -0.05186546002722329" magmom=0.0 free_energy=-168.07183745867943 pbc="T T F"
Pt       1.40360696       0.81037286       6.00000000        3      -0.00564925      -0.00326160      -0.02065285       0.00000000
Pt       4.21082088       0.81037286       6.00000000        3       0.02933359       0.01366268      -0.05997203       0.00000000
Pt       7.01803480       0.81037286       6.00000000        3      -0.03014902       0.01263477      -0.06834494       0.00000000
Pt       2.80721392       3.24149143       6.00000000        3       0.02649902       0.01857230      -0.05997203       0.00000000
Pt       5.61442784       3.24149143       6.00000000        3       0.00077900       0.00044975      -0.08896042       0.00000000
Pt       8.42164176       3.24149143       6.00000000        3      -0.02948260       0.02636778      -0.06929251       0.00000000
Pt       4.21082088       5.67261000       6.00000000        3      -0.00413248      -0.03242721      -0.06834494       0.00000000
Pt       7.01803480       5.67261000       6.00000000        3       0.00809387      -0.03871657      -0.06929251       0.00000000
Pt       9.82524872       5.67261000       6.00000000        3      -0.00609818      -0.00352078      -0.36554796       0.00000000
Pt      -0.00000000       1.62074571       8.29208057        2      -0.04071595       0.01771491      -0.31593916       0.00000000
Pt       2.80721392       1.62074571       8.29208057        2       0.04371599       0.02523944      -0.31919020       0.00000000
Pt       5.61442784       1.62074571       8.29208057        2       0.00175606       0.02719481       0.00690226       0.00000000
Pt       1.40360696       4.05186428       8.29208057        2       0.00058191      -0.12207285       0.44393828       0.00000000
Pt       4.21082088       4.05186428       8.29208057        2       0.02442942      -0.01207661       0.00690226       0.00000000
Pt       7.01803480       4.05186428       8.29208057        2      -0.02544973      -0.01469341       0.01134119       0.00000000
Pt       2.80721392       6.48298285       8.29208057        2       0.11326592       0.06539411       0.43362607       0.00000000
Pt       5.61442784       6.48298285       8.29208057        2      -0.00501641      -0.04411850      -0.31593916       0.00000000
Pt       8.42164176       6.48298285       8.29208057        2      -0.10542724       0.06154037       0.44393828       0.00000000
Pt       0.00000000       0.00000000      10.58416114        1      -0.97094229      -0.56057379       0.18257992       0.00000000
Pt       2.80721392       0.00000000      10.58416114        1       0.94568536      -0.54117105       0.18784471       0.00000000
Pt       5.61442784       0.00000000      10.58416114        1       0.00919854      -0.03213734       0.01396147       0.00000000
Pt       1.40360696       2.43111857      10.58416114        1       0.00417480       1.08957307       0.18784471       0.00000000
Pt       4.21082088       2.43111857      10.58416114        1       0.38275599       0.22098427      -0.04274849       0.00000000
Pt       7.01803480       2.43111857      10.58416114        1      -0.37967787       0.22216063      -0.05361602       0.00000000
Pt       2.80721392       4.86223714      10.58416114        1      -0.02323248       0.02403484       0.01396147       0.00000000
Pt       5.61442784       4.86223714      10.58416114        1       0.00255782      -0.43989100      -0.05361602       0.00000000
Pt       8.42164176       4.86223714      10.58416114        1       0.03431719       0.01981304       0.00051091       0.00000000
O        1.40417763       0.81070233      11.83616255        0       0.00029382       0.00016964       0.02583093       0.00000000
