28
Lattice="8.421641763931781 0.0 0.0 4.2108208819658905 7.293355709136913 0.0 0.0 0.0 16.584161137365626" Properties=species:S:1:pos:R:3:tags:I:1:forces:R:3:magmoms:R:1 energy=-166.0264765677025 dipole="-0.17498217993600984 -0.10102600868942967 -0.31638077340478" magmom=0.0 free_energy=-166.94127600341076 pbc="T T F"
Pt       1.40360696       0.81037286       6.00000000        3       0.01116506       0.00644615      -0.03089926       0.00000000
Pt       4.21082088       0.81037286       6.00000000        3       0.00000000       0.01034580      -0.07085309       0.00000000
Pt       7.01803480       0.81037286       6.00000000        3      -0.01116506       0.00644615      -0.03089926       0.00000000
Pt       2.80721392       3.24149143       6.00000000        3       0.00895972      -0.00517290      -0.07085309       0.00000000
Pt       5.61442784       3.24149143       6.00000000        3      -0.00895972      -0.00517290      -0.07085309       0.00000000
Pt       8.42164176       3.24149143       6.00000000        3      -0.00000000      -0.03174745      -0.06892207       0.00000000
Pt       4.21082088       5.67261000       6.00000000        3       0.00000000      -0.01289230      -0.03089926       0.00000000
Pt       7.01803480       5.67261000       6.00000000        3      -0.02749410       0.01587373      -0.06892207       0.00000000
Pt       9.82524872       5.67261000       6.00000000        3       0.02749410       0.01587373      -0.06892207       0.00000000
Pt      -0.00000000       1.62074571       8.29208057        2       0.00000000      -0.15456420       0.14075995       0.00000000
Pt       2.80721392       1.62074571       8.29208057        2      -0.00302362      -0.00174569      -0.01703399       0.00000000
Pt       5.61442784       1.62074571       8.29208057        2       0.00302362      -0.00174569      -0.01703399       0.00000000
Pt       1.40360696       4.05186428       8.29208057        2      -0.01001426       0.00578174      -0.03768352       0.00000000
Pt       4.21082088       4.05186428       8.29208057        2      -0.00000000       0.00349137      -0.01703399       0.00000000
Pt       7.01803480       4.05186428       8.29208057        2       0.01001426       0.00578174      -0.03768352       0.00000000
Pt       2.80721392       6.48298285       8.29208057        2       0.13385653       0.07728210       0.14075995       0.00000000
Pt       5.61442784       6.48298285       8.29208057        2      -0.13385653       0.07728210       0.14075995       0.00000000
Pt       8.42164176       6.48298285       8.29208057        2      -0.00000000      -0.01156348      -0.03768352       0.00000000
Pt       0.00000000       0.00000000      10.58416114        1      -0.00000000      -0.00000000       0.47889557       0.00000000
Pt       2.80721392       0.00000000      10.58416114        1       0.36194025      -0.00388988      -0.04382849       0.00000000
Pt       5.61442784       0.00000000      10.58416114        1      -0.36194025      -0.00388988      -0.04382849       0.00000000
Pt       1.40360696       2.43111857      10.58416114        1       0.17760139       0.31539439      -0.04382849       0.00000000
Pt       4.21082088       2.43111857      10.58416114        1      -0.00000000      -0.00000000       0.07103987       0.00000000
Pt       7.01803480       2.43111857      10.58416114        1      -0.17760139       0.31539439      -0.04382849       0.00000000
Pt       2.80721392       4.86223714      10.58416114        1      -0.18433886      -0.31150451      -0.04382849       0.00000000
Pt       5.61442784       4.86223714      10.58416114        1       0.18433886      -0.31150451      -0.04382849       0.00000000
Pt       8.42164176       4.86223714      10.58416114        1       0.00000000       0.00000000       0.07219144       0.00000000
O        0.00000000       0.00000000      12.40377716        0       0.00000000       0.00000000      -0.08946474       0.00000000
