28
Lattice="8.421641763931781 0.0 0.0 4.2108208819658905 7.293355709136913 0.0 0.0 0.0 16.584161137365626" Properties=species:S:1:pos:R:3:tags:I:1:forces:R:3:magmoms:R:1 energy=-167.21806803424306 dipole="-1.8578473857926274 -1.0679331360184854 -0.05287727280020947" magmom=0.0 free_energy=-168.07185843051215 pbc="T T F"
Pt       1.40360696       0.81037286       6.00000000        3      -0.00588890      -0.00358460      -0.02296529       0.00000000
Pt       4.21082088       0.81037286       6.00000000        3       0.02835579       0.01329985      -0.05957583       0.00000000
Pt       7.01803480       0.81037286       6.00000000        3      -0.02893376       0.01242279      -0.06809770       0.00000000
Pt       2.80721392       3.24149143       6.00000000        3       0.02581863       0.01799779      -0.05955060       0.00000000
Pt       5.61442784       3.24149143       6.00000000        3       0.00090221       0.00062187      -0.08809466       0.00000000
Pt       8.42164176       3.24149143       6.00000000        3      -0.02894948       0.02576378      -0.06898398       0.00000000
Pt       4.21082088       5.67261000       6.00000000        3      -0.00359844      -0.03128946      -0.06817144       0.00000000
Pt       7.01803480       5.67261000       6.00000000        3       0.00771387      -0.03782931      -0.06908676       0.00000000
Pt       9.82524872       5.67261000       6.00000000        3      -0.00636038      -0.00343524      -0.36492479       0.00000000
Pt      -0.00000000       1.62074571       8.29208057        2      -0.04211867       0.01707272      -0.31626866       0.00000000
Pt       2.80721392       1.62074571       8.29208057        2       0.04450540       0.02527845      -0.31838680       0.00000000
Pt       5.61442784       1.62074571       8.29208057        2       0.00229484       0.02757749       0.00835149       0.00000000
Pt       1.40360696       4.05186428       8.29208057        2       0.00071492      -0.12019021       0.44426371       0.00000000
Pt       4.21082088       4.05186428       8.29208057        2       0.02532920      -0.01177809       0.00815487       0.00000000
Pt       7.01803480       4.05186428       8.29208057        2      -0.02642792      -0.01505150       0.01241930       0.00000000
Pt       2.80721392       6.48298285       8.29208057        2       0.11250576       0.06487541       0.43405630       0.00000000
Pt       5.61442784       6.48298285       8.29208057        2      -0.00590657      -0.04496168      -0.31640575       0.00000000
Pt       8.42164176       6.48298285       8.29208057        2      -0.10399387       0.06077707       0.44391493       0.00000000
Pt       0.00000000       0.00000000      10.58416114        1      -0.94159906      -0.54216706       0.19527140       0.00000000
Pt       2.80721392       0.00000000      10.58416114        1       0.91553574      -0.51954344       0.20436556       0.00000000
Pt       5.61442784       0.00000000      10.58416114        1       0.00844672      -0.03247226       0.01250951       0.00000000
Pt       1.40360696       2.43111857      10.58416114        1       0.00653167       1.05766462       0.20196582       0.00000000
Pt       4.21082088       2.43111857      10.58416114        1       0.37954491       0.21857127      -0.03805580       0.00000000
Pt       7.01803480       2.43111857      10.58416114        1      -0.37971329       0.22113814      -0.05168344       0.00000000
Pt       2.80721392       4.86223714      10.58416114        1      -0.02436167       0.02378095       0.01244315       0.00000000
Pt       5.61442784       4.86223714      10.58416114        1       0.00214025      -0.44010302      -0.05236126       0.00000000
Pt       8.42164176       4.86223714      10.58416114        1       0.03585615       0.02065369      -0.00082323       0.00000000
O        1.40378994       0.81141882      11.83780680        0      -0.00068920      -0.00898841      -0.00106040       0.00000000
