28
Lattice="8.421641763931781 0.0 0.0 4.2108208819658905 7.293355709136913 0.0 0.0 0.0 16.584161137365626" Properties=species:S:1:pos:R:3:tags:I:1:forces:R:3:magmoms:R:1 energy=-167.21803844908175 dipole="-1.856132709173281 -1.0668560921812789 -0.0532772215975337" magmom=0.0 free_energy=-168.0718573504943 pbc="T T F"
Pt       1.40360696       0.81037286       6.00000000        3      -0.00567915      -0.00300641      -0.02174635       0.00000000
Pt       4.21082088       0.81037286       6.00000000        3       0.02860663       0.01363510      -0.05886975       0.00000000
Pt       7.01803480       0.81037286       6.00000000        3      -0.02942688       0.01263317      -0.06727303       0.00000000
Pt       2.80721392       3.24149143       6.00000000        3       0.02582446       0.01820163      -0.05888260       0.00000000
Pt       5.61442784       3.24149143       6.00000000        3       0.00078767       0.00024335      -0.08767872       0.00000000
Pt       8.42164176       3.24149143       6.00000000        3      -0.02884198       0.02599530      -0.06826719       0.00000000
Pt       4.21082088       5.67261000       6.00000000        3      -0.00428319      -0.03183055      -0.06740654       0.00000000
Pt       7.01803480       5.67261000       6.00000000        3       0.00825336      -0.03815039      -0.06839700       0.00000000
Pt       9.82524872       5.67261000       6.00000000        3      -0.00611232      -0.00377397      -0.36412466       0.00000000
Pt      -0.00000000       1.62074571       8.29208057        2      -0.04335235       0.01719799      -0.31661812       0.00000000
Pt       2.80721392       1.62074571       8.29208057        2       0.04622866       0.02481562      -0.31986153       0.00000000
Pt       5.61442784       1.62074571       8.29208057        2       0.00177127       0.02706454       0.00855794       0.00000000
Pt       1.40360696       4.05186428       8.29208057        2       0.00056509      -0.12013573       0.44341721       0.00000000
Pt       4.21082088       4.05186428       8.29208057        2       0.02504544      -0.01176891       0.00856058       0.00000000
Pt       7.01803480       4.05186428       8.29208057        2      -0.02606534      -0.01440326       0.01300138       0.00000000
Pt       2.80721392       6.48298285       8.29208057        2       0.11363560       0.06562622       0.43652845       0.00000000
Pt       5.61442784       6.48298285       8.29208057        2      -0.00513759      -0.04591942      -0.31594699       0.00000000
Pt       8.42164176       6.48298285       8.29208057        2      -0.10572545       0.06171993       0.44674361       0.00000000
Pt       0.00000000       0.00000000      10.58416114        1      -0.94868276      -0.54029498       0.19624983       0.00000000
Pt       2.80721392       0.00000000      10.58416114        1       0.92370365      -0.52041934       0.20221403       0.00000000
Pt       5.61442784       0.00000000      10.58416114        1       0.00934212      -0.03272023       0.01224208       0.00000000
Pt       1.40360696       2.43111857      10.58416114        1       0.00468969       1.05915953       0.20851331       0.00000000
Pt       4.21082088       2.43111857      10.58416114        1       0.38077913       0.21848399      -0.03897665       0.00000000
Pt       7.01803480       2.43111857      10.58416114        1      -0.37818530       0.21981872      -0.05025018       0.00000000
Pt       2.80721392       4.86223714      10.58416114        1      -0.02374092       0.02568856       0.01256698       0.00000000
Pt       5.61442784       4.86223714      10.58416114        1       0.00247131      -0.44260933      -0.05557178       0.00000000
Pt       8.42164176       4.86223714      10.58416114        1       0.03488129       0.02135170      -0.00087922       0.00000000
O        1.40424416       0.81160334      11.83832215        0       0.00126994       0.01588615      -0.00166438       0.00000000
