28
Lattice="8.421641763931781 0.0 0.0 4.2108208819658905 7.293355709136913 0.0 0.0 0.0 16.584161137365626" Properties=species:S:1:pos:R:3:tags:I:1:forces:R:3:magmoms:R:1 energy=-166.8307553458662 dipole="-0.29682596277768414 -0.17137255179007405 -0.059170937328833585" magmom=0.0 free_energy=-167.70264114863411 pbc="T T F"
Pt       1.40360696       0.81037286       6.00000000        3       0.01967716       0.01136061      -0.05668916       0.00000000
Pt       4.21082088       0.81037286       6.00000000        3      -0.01931483      -0.00366883      -0.04846010       0.00000000
Pt       7.01803480       0.81037286       6.00000000        3      -0.00382583      -0.03742949      -0.13410877       0.00000000
Pt       2.80721392       3.24149143       6.00000000        3      -0.01283471      -0.01489272      -0.04846010       0.00000000
Pt       5.61442784       3.24149143       6.00000000        3       0.00960737       0.00554682      -0.02195727       0.00000000
Pt       8.42164176       3.24149143       6.00000000        3       0.00218912      -0.00133353      -0.03691781       0.00000000
Pt       4.21082088       5.67261000       6.00000000        3      -0.03432781       0.01540148      -0.13410877       0.00000000
Pt       7.01803480       5.67261000       6.00000000        3      -0.00006031       0.00256260      -0.03691781       0.00000000
Pt       9.82524872       5.67261000       6.00000000        3       0.02607828       0.01505630      -0.14977193       0.00000000
Pt      -0.00000000       1.62074571       8.29208057        2      -0.08046764       0.08299610       0.05531708       0.00000000
Pt       2.80721392       1.62074571       8.29208057        2       0.00067363       0.00038892      -0.59388555       0.00000000
Pt       5.61442784       1.62074571       8.29208057        2       0.08087730       0.08322053       0.05585074       0.00000000
Pt       1.40360696       4.05186428       8.29208057        2      -0.11037487       0.03162045       0.05886938       0.00000000
Pt       4.21082088       4.05186428       8.29208057        2       0.11250974       0.02843153       0.05585074       0.00000000
Pt       7.01803480       4.05186428       8.29208057        2       0.00637502       0.00368062      -0.04917062       0.00000000
Pt       2.80721392       6.48298285       8.29208057        2      -0.00067341      -0.00038879      -0.13327819       0.00000000
Pt       5.61442784       6.48298285       8.29208057        2       0.03164292      -0.11118507       0.05531708       0.00000000
Pt       8.42164176       6.48298285       8.29208057        2      -0.02780332      -0.11139766       0.05886938       0.00000000
Pt       0.00000000       0.00000000      10.58416114        1      -0.32576986      -0.18808332      -0.06317641       0.00000000
Pt       2.80721392       0.00000000      10.58416114        1      -0.00885261      -0.46933379       0.41383434       0.00000000
Pt       5.61442784       0.00000000      10.58416114        1       0.32916568      -0.18450404      -0.06185696       0.00000000
Pt       1.40360696       2.43111857      10.58416114        1      -0.41088129       0.22700031       0.41383434       0.00000000
Pt       4.21082088       2.43111857      10.58416114        1       0.43278698       0.24986968       0.37769804       0.00000000
Pt       7.01803480       2.43111857      10.58416114        1      -0.00794884       0.04124574       0.01949509       0.00000000
Pt       2.80721392       4.86223714      10.58416114        1       0.00479765       0.37731786      -0.06185696       0.00000000
Pt       5.61442784       4.86223714      10.58416114        1       0.03174544      -0.02750677       0.01949509       0.00000000
Pt       8.42164176       4.86223714      10.58416114        1      -0.04627574      -0.02671731       0.00712848       0.00000000
O        2.80429626       1.61906120      11.87350424        0      -0.00286905      -0.00165645       0.00326147       0.00000000
