28
Lattice="8.421641763931781 0.0 0.0 4.2108208819658905 7.293355709136913 0.0 0.0 0.0 16.584161137365626" Properties=species:S:1:pos:R:3:tags:I:1:forces:R:3:magmoms:R:1 energy=-167.44251643562217 dipole="4.186259768891571 2.416938205531483 -0.04805055301379683" magmom=0.0 free_energy=-168.28243671952725 pbc="T T F"
Pt       1.40129615       0.80903871       6.01390963        3       0.00117540       0.00067862      -0.00453005       0.00000000
Pt       4.21366020       0.80209732       6.01806907        3       0.00558471       0.00753040      -0.00109665       0.00000000
Pt       7.01213818       0.80267417       6.01553060        3      -0.00298123       0.00660547      -0.00309458       0.00000000
Pt       2.80146675       3.24808811       6.01806907        3       0.00931387       0.00107131      -0.00109665       0.00000000
Pt       5.61272030       3.24050557       5.98562243        3       0.00045452       0.00026242      -0.00860841       0.00000000
Pt       8.42397391       3.24948793       6.01485472        3      -0.00656961       0.00036614      -0.00148084       0.00000000
Pt       4.20120531       5.67135272       6.01553060        3       0.00422989      -0.00588456      -0.00309458       0.00000000
Pt       7.02612605       5.67063144       6.01485472        3      -0.00296772      -0.00587252      -0.00148084       0.00000000
Pt       9.82292933       5.67127089       6.00857459        3       0.00197907       0.00114262       0.00098773       0.00000000
Pt       0.01121355       1.61524233       8.31056592        2      -0.00395731       0.00023195      -0.00300458       0.00000000
Pt       2.79797555       1.61541194       8.31159643        2       0.00373559       0.00215675      -0.00375665       0.00000000
Pt       5.61520934       1.61696823       8.29546705        2      -0.00035540      -0.00278756      -0.00915895       0.00000000
Pt       1.40390205       4.05149396       8.36446199        2      -0.00046735      -0.00162722      -0.00113723       0.00000000
Pt       4.20794023       4.05442982       8.29546705        2      -0.00259179       0.00108600      -0.00915895       0.00000000
Pt       7.02145789       4.05384061       8.29478854        2       0.00161698       0.00093356      -0.00726590       0.00000000
Pt       2.80837725       6.48365450       8.36187360        2       0.00177974       0.00102753       0.00062125       0.00000000
Pt       5.61526855       6.49544577       8.31056592        2      -0.00177778      -0.00354311      -0.00300458       0.00000000
Pt       8.42146860       6.48342357       8.36446199        2      -0.00164289       0.00040887      -0.00113723       0.00000000
Pt      -0.07594451      -0.04384659      10.66055681        1       0.00374786       0.00216383       0.00456883       0.00000000
Pt       2.88228989      -0.04180795      10.66161123        1      -0.00101976      -0.00016212       0.00461318       0.00000000
Pt       5.61611375       0.00433482      10.65211728        1       0.00043524      -0.00335993      -0.00451623       0.00000000
Pt       1.40493820       2.51704024      10.66161123        1      -0.00065028      -0.00080208       0.00461318       0.00000000
Pt       4.23912771       2.44746152      10.58471584        1      -0.00426800      -0.00246413      -0.00010227       0.00000000
Pt       6.99372770       2.44710009      10.58221642        1       0.00127210      -0.00346901       0.00014166       0.00000000
Pt       2.81181094       4.86152976      10.65211728        1      -0.00269217       0.00205689      -0.00451623       0.00000000
Pt       5.61611469       4.83319581      10.58221642        1      -0.00236820       0.00283618       0.00014166       0.00000000
Pt       8.42202081       4.86245598      10.65056970        1       0.00010620       0.00006131      -0.00223676       0.00000000
O        1.40316651       0.81011856      11.80008690        0       0.00401380       0.00231737       0.00636906       0.00000000
