28
Lattice="8.421641763931781 0.0 0.0 4.2108208819658905 7.293355709136913 0.0 0.0 0.0 16.584161137365626" Properties=species:S:1:pos:R:3:tags:I:1:forces:R:3:magmoms:R:1 energy=-167.21786437361342 dipole="-1.8560529852660463 -1.071592690673395 -0.05366335773193551" magmom=0.0 free_energy=-168.07182317870422 pbc="T T F"
Pt       1.40360696       0.81037286       6.00000000        3      -0.00569505      -0.00328804      -0.02178193       0.00000000
Pt       4.21082088       0.81037286       6.00000000        3       0.02916078       0.01354361      -0.05930768       0.00000000
Pt       7.01803480       0.81037286       6.00000000        3      -0.02994213       0.01253966      -0.06769256       0.00000000
Pt       2.80721392       3.24149143       6.00000000        3       0.02630950       0.01848217      -0.05930768       0.00000000
Pt       5.61442784       3.24149143       6.00000000        3       0.00078039       0.00045056      -0.08815959       0.00000000
Pt       8.42164176       3.24149143       6.00000000        3      -0.02932718       0.02621040      -0.06867809       0.00000000
Pt       4.21082088       5.67261000       6.00000000        3      -0.00411140      -0.03220047      -0.06769256       0.00000000
Pt       7.01803480       5.67261000       6.00000000        3       0.00803528      -0.03850328      -0.06867809       0.00000000
Pt       9.82524872       5.67261000       6.00000000        3      -0.00609367      -0.00351818      -0.36413581       0.00000000
Pt      -0.00000000       1.62074571       8.29208057        2      -0.04199185       0.01842999      -0.31593583       0.00000000
Pt       2.80721392       1.62074571       8.29208057        2       0.04490177       0.02592405      -0.31908028       0.00000000
Pt       5.61442784       1.62074571       8.29208057        2       0.00172369       0.02745902       0.00736813       0.00000000
Pt       1.40360696       4.05186428       8.29208057        2       0.00057398      -0.12250793       0.44589645       0.00000000
Pt       4.21082088       4.05186428       8.29208057        2       0.02464206      -0.01223675       0.00736813       0.00000000
Pt       7.01803480       4.05186428       8.29208057        2      -0.02565413      -0.01481142       0.01181745       0.00000000
Pt       2.80721392       6.48298285       8.29208057        2       0.11356653       0.06556767       0.43542221       0.00000000
Pt       5.61442784       6.48298285       8.29208057        2      -0.00503509      -0.04558101      -0.31593583       0.00000000
Pt       8.42164176       6.48298285       8.29208057        2      -0.10580799       0.06175105       0.44589645       0.00000000
Pt       0.00000000       0.00000000      10.58416114        1      -0.94059654      -0.54305366       0.20231235       0.00000000
Pt       2.80721392       0.00000000      10.58416114        1       0.91555471      -0.52363145       0.20774288       0.00000000
Pt       5.61442784       0.00000000      10.58416114        1       0.00928205      -0.03335715       0.01084482       0.00000000
Pt       1.40360696       2.43111857      10.58416114        1       0.00429921       1.05470936       0.20774288       0.00000000
Pt       4.21082088       2.43111857      10.58416114        1       0.37983396       0.21929724      -0.04191064       0.00000000
Pt       7.01803480       2.43111857      10.58416114        1      -0.37690748       0.22048201      -0.05280234       0.00000000
Pt       2.80721392       4.86223714      10.58416114        1      -0.02424712       0.02471707       0.01084482       0.00000000
Pt       5.61442784       4.86223714      10.58416114        1       0.00248928      -0.43665246      -0.05280234       0.00000000
Pt       8.42164176       4.86223714      10.58416114        1       0.03535858       0.02041429      -0.00267602       0.00000000
O        1.40421815       0.81072573      11.83990274        0       0.00053080       0.00030646       0.00200781       0.00000000
