28
Lattice="8.421641763931781 0.0 0.0 4.2108208819658905 7.293355709136913 0.0 0.0 0.0 16.584161137365626" Properties=species:S:1:pos:R:3:tags:I:1:forces:R:3:magmoms:R:1 energy=-166.02679872154366 dipole="-0.1750048414524926 -0.10103909232209725 -0.3130646253643845" magmom=0.0 free_energy=-166.94138945089466 pbc="T T F"
Pt       1.40360696       0.81037286       6.00000000        3       0.01055571       0.00609434      -0.03210746       0.00000000
Pt       4.21082088       0.81037286       6.00000000        3      -0.00000000       0.00977076      -0.07325927       0.00000000
Pt       7.01803480       0.81037286       6.00000000        3      -0.01055571       0.00609434      -0.03210746       0.00000000
Pt       2.80721392       3.24149143       6.00000000        3       0.00846173      -0.00488538      -0.07325927       0.00000000
Pt       5.61442784       3.24149143       6.00000000        3      -0.00846173      -0.00488538      -0.07325927       0.00000000
Pt       8.42164176       3.24149143       6.00000000        3       0.00000000      -0.03221938      -0.07137067       0.00000000
Pt       4.21082088       5.67261000       6.00000000        3      -0.00000000      -0.01218869      -0.03210746       0.00000000
Pt       7.01803480       5.67261000       6.00000000        3      -0.02790280       0.01610969      -0.07137067       0.00000000
Pt       9.82524872       5.67261000       6.00000000        3       0.02790280       0.01610969      -0.07137067       0.00000000
Pt      -0.00000000       1.62074571       8.29208057        2      -0.00000000      -0.15237941       0.13768303       0.00000000
Pt       2.80721392       1.62074571       8.29208057        2      -0.00312198      -0.00180248      -0.01720007       0.00000000
Pt       5.61442784       1.62074571       8.29208057        2       0.00312198      -0.00180248      -0.01720007       0.00000000
Pt       1.40360696       4.05186428       8.29208057        2      -0.01042525       0.00601902      -0.03824359       0.00000000
Pt       4.21082088       4.05186428       8.29208057        2       0.00000000       0.00360495      -0.01720007       0.00000000
Pt       7.01803480       4.05186428       8.29208057        2       0.01042525       0.00601902      -0.03824359       0.00000000
Pt       2.80721392       6.48298285       8.29208057        2       0.13196444       0.07618971       0.13768303       0.00000000
Pt       5.61442784       6.48298285       8.29208057        2      -0.13196444       0.07618971       0.13768303       0.00000000
Pt       8.42164176       6.48298285       8.29208057        2      -0.00000000      -0.01203804      -0.03824359       0.00000000
Pt       0.00000000       0.00000000      10.58416114        1      -0.00000000      -0.00000000       0.40576654       0.00000000
Pt       2.80721392       0.00000000      10.58416114        1       0.36269112      -0.00337094      -0.04858456       0.00000000
Pt       5.61442784       0.00000000      10.58416114        1      -0.36269112      -0.00337094      -0.04858456       0.00000000
Pt       1.40360696       2.43111857      10.58416114        1       0.17842625       0.31578520      -0.04858456       0.00000000
Pt       4.21082088       2.43111857      10.58416114        1      -0.00000000      -0.00000000       0.06943515       0.00000000
Pt       7.01803480       2.43111857      10.58416114        1      -0.17842625       0.31578520      -0.04858456       0.00000000
Pt       2.80721392       4.86223714      10.58416114        1      -0.18426488      -0.31241426      -0.04858456       0.00000000
Pt       5.61442784       4.86223714      10.58416114        1       0.18426488      -0.31241426      -0.04858456       0.00000000
Pt       8.42164176       4.86223714      10.58416114        1       0.00000000       0.00000000       0.07083932       0.00000000
O       -0.00000000       0.00000000      12.40053262        0      -0.00000000       0.00000000      -0.00878464       0.00000000
