29
Lattice="8.145870119269027 0.0 0.0 4.0729350596345135 7.0545304592155516 0.0 0.0 0.0 16.434050067376326" Properties=species:S:1:pos:R:3:tags:I:1:forces:R:3:magmoms:R:1 energy=-199.09469301656762 dipole="0.06799338895414929 0.03925600523999767 -0.19494763052075958" magmom=0.0 free_energy=-199.89578063146683 pbc="T T F"
Rh       1.35451566       0.78202998       6.05852891        3       0.00116295       0.00067143      -0.00216334       0.00000000
Rh       4.07293506       0.78075034       6.05272520        3       0.00000000       0.00152156       0.00319167       0.00000000
Rh       6.79135446       0.78202998       6.05852891        3      -0.00116295       0.00067143      -0.00216334       0.00000000
Rh       2.71261716       3.13689006       6.05272520        3       0.00131771      -0.00076078       0.00319167       0.00000000
Rh       5.43325296       3.13689006       6.05272520        3      -0.00131771      -0.00076078       0.00319167       0.00000000
Rh       8.14587012       3.15140121       6.04579840        3       0.00000000      -0.00466739      -0.00012537       0.00000000
Rh       4.07293506       5.49047050       6.05852891        3      -0.00000000      -0.00134286      -0.00216334       0.00000000
Rh       6.80212857       5.47882985       6.04579840        3      -0.00404207       0.00233369      -0.00012537       0.00000000
Rh       9.48961167       5.47882985       6.04579840        3       0.00404207       0.00233369      -0.00012537       0.00000000
Rh      -0.00000000       1.54409329       8.22088655        2       0.00000000      -0.00021398       0.00552566       0.00000000
Rh       2.71360885       1.56670280       8.20969344        2      -0.00168297      -0.00097166       0.00895045       0.00000000
Rh       5.43226127       1.56670280       8.20969344        2       0.00168297      -0.00097166       0.00895045       0.00000000
Rh       1.35800179       3.91897761       8.21441711        2       0.00224456      -0.00129590      -0.00031206       0.00000000
Rh       4.07293506       3.92112486       8.20969344        2      -0.00000000       0.00194333       0.00895045       0.00000000
Rh       6.78786833       3.91897761       8.21441711        2      -0.00224456      -0.00129590      -0.00031206       0.00000000
Rh       2.73571104       6.28248381       8.22088655        2       0.00018531       0.00010699       0.00552566       0.00000000
Rh       5.41015908       6.28248381       8.22088655        2      -0.00018531       0.00010699       0.00552566       0.00000000
Rh       8.14587012       6.27110570       8.21441711        2       0.00000000       0.00259180      -0.00031206       0.00000000
Rh       0.00000000       0.00000000      10.59005160        1       0.00000000       0.00000000      -0.00333586       0.00000000
Rh       2.73280489      -0.00001072      10.36747205        1      -0.00171900       0.00294764      -0.00088162       0.00000000
Rh       5.41306522      -0.00001072      10.36747205        1       0.00171900       0.00294764      -0.00088162       0.00000000
Rh       1.36639316       2.36668382      10.36747205        1       0.00169323      -0.00296252      -0.00088162       0.00000000
Rh       4.07293506       2.35151015      10.36824450        1       0.00000000       0.00000000      -0.00167563       0.00000000
Rh       6.77947695       2.36668382      10.36747205        1      -0.00169323      -0.00296252      -0.00088162       0.00000000
Rh       2.70652333       4.68785736      10.36747205        1       0.00341224       0.00001488      -0.00088162       0.00000000
Rh       5.43934679       4.68785736      10.36747205        1      -0.00341224       0.00001488      -0.00088162       0.00000000
Rh       8.14587012       4.70302031      10.37308147        1      -0.00000000       0.00000000      -0.00425937       0.00000000
O        0.00000000       0.00000000      13.58013504        0       0.00000000      -0.00000000       0.00654673       0.00000000
C       -0.00000000      -0.00000000      12.41713719        0       0.00000000       0.00000000       0.00882854       0.00000000
