29
Lattice="8.145870119269027 0.0 0.0 4.0729350596345135 7.0545304592155516 0.0 0.0 0.0 16.434050067376326" Properties=species:S:1:pos:R:3:tags:I:1:forces:R:3:magmoms:R:1 energy=-198.5776188539229 dipole="-0.23885633491859137 -0.13790376926290382 -0.08809621034879543" magmom=0.0 free_energy=-199.42234951264575 pbc="T T F"
Rh       1.35764502       0.78383672       6.00000000        3      -0.01534219      -0.00885782       0.48882696       0.00000000
Rh       4.07293506       0.78383672       6.00000000        3       0.00000000      -0.03828910       0.44283633       0.00000000
Rh       6.78822510       0.78383672       6.00000000        3       0.01534219      -0.00885782       0.48882696       0.00000000
Rh       2.71529004       3.13534687       6.00000000        3      -0.03315933       0.01914455       0.44283633       0.00000000
Rh       5.43058008       3.13534687       6.00000000        3       0.03315933       0.01914455       0.44283633       0.00000000
Rh       8.14587012       3.13534687       6.00000000        3       0.00000000       0.13457287       0.31996667       0.00000000
Rh       4.07293506       5.48685702       6.00000000        3       0.00000000       0.01771564       0.48882696       0.00000000
Rh       6.78822510       5.48685702       6.00000000        3       0.11654352      -0.06728643       0.31996667       0.00000000
Rh       9.50351514       5.48685702       6.00000000        3      -0.11654352      -0.06728643       0.31996667       0.00000000
Rh      -0.00000000       1.56767344       8.21702503        2       0.00000000      -0.08451317      -0.17010170       0.00000000
Rh       2.71529004       1.56767344       8.21702503        2       0.00179965       0.00103903       0.00212280       0.00000000
Rh       5.43058008       1.56767344       8.21702503        2      -0.00179965       0.00103903       0.00212280       0.00000000
Rh       1.35764502       3.91918359       8.21702503        2       0.02600060      -0.01501145       0.05045136       0.00000000
Rh       4.07293506       3.91918359       8.21702503        2      -0.00000000      -0.00207806       0.00212280       0.00000000
Rh       6.78822510       3.91918359       8.21702503        2      -0.02600060      -0.01501145       0.05045136       0.00000000
Rh       2.71529004       6.27069374       8.21702503        2       0.07319055       0.04225658      -0.17010170       0.00000000
Rh       5.43058008       6.27069374       8.21702503        2      -0.07319055       0.04225658      -0.17010170       0.00000000
Rh       8.14587012       6.27069374       8.21702503        2      -0.00000000       0.03002290       0.05045136       0.00000000
Rh       0.00000000       0.00000000      10.43405007        1      -0.00000000       0.00000000       2.31081705       0.00000000
Rh       2.71529004       0.00000000      10.43405007        1       0.29764762      -0.01112201      -0.52038109       0.00000000
Rh       5.43058008       0.00000000      10.43405007        1      -0.29764762      -0.01112201      -0.52038109       0.00000000
Rh       1.35764502       2.35151015      10.43405007        1       0.13919186       0.26333140      -0.52038109       0.00000000
Rh       4.07293506       2.35151015      10.43405007        1       0.00000000       0.00000000      -0.44558648       0.00000000
Rh       6.78822510       2.35151015      10.43405007        1      -0.13919186       0.26333140      -0.52038109       0.00000000
Rh       2.71529004       4.70302031      10.43405007        1      -0.15845575      -0.25220939      -0.52038109       0.00000000
Rh       5.43058008       4.70302031      10.43405007        1       0.15845575      -0.25220939      -0.52038109       0.00000000
Rh       8.14587012       4.70302031      10.43405007        1       0.00000000       0.00000000      -0.40448710       0.00000000
O        0.00000000       0.00000000      13.58439007        0       0.00000000       0.00000000      -1.76572992       0.00000000
C        0.00000000       0.00000000      12.40959937        0       0.00000000       0.00000000      -0.00067603       0.00000000
