29
Lattice="8.145870119269027 0.0 0.0 4.0729350596345135 7.0545304592155516 0.0 0.0 0.0 16.434050067376326" Properties=species:S:1:pos:R:3:tags:I:1:forces:R:3:magmoms:R:1 energy=-197.80252931640175 dipole="-0.5418000376527125 -0.3128083975857463 -0.18028986506595568" magmom=0.0 free_energy=-198.66328507431544 pbc="T T F"
Rh       1.35764502       0.78383672       6.00000000        3       0.01396194       0.00806093       0.44537959       0.00000000
Rh       4.07293506       0.78383672       6.00000000        3      -0.01100085       0.00691406       0.44048192       0.00000000
Rh       6.78822510       0.78383672       6.00000000        3       0.00599131      -0.08446082       0.34224039       0.00000000
Rh       2.71529004       3.13534687       6.00000000        3       0.00048733      -0.01298405       0.44048192       0.00000000
Rh       5.43058008       3.13534687       6.00000000        3      -0.02325268      -0.01342494       0.46035761       0.00000000
Rh       8.14587012       3.13534687       6.00000000        3       0.02393297      -0.01345349       0.45827331       0.00000000
Rh       4.07293506       5.48685702       6.00000000        3      -0.07014956       0.04741904       0.34224039       0.00000000
Rh       6.78822510       5.48685702       6.00000000        3       0.00031542       0.02745331       0.45827331       0.00000000
Rh       9.50351514       5.48685702       6.00000000        3       0.07815811       0.04512461       0.33162628       0.00000000
Rh      -0.00000000       1.56767344       8.21702503        2       0.00378869       0.05590526       0.03780176       0.00000000
Rh       2.71529004       1.56767344       8.21702503        2      -0.00066802      -0.00038568      -0.20547756       0.00000000
Rh       5.43058008       1.56767344       8.21702503        2      -0.00229221       0.05553876       0.03290112       0.00000000
Rh       1.35764502       3.91918359       8.21702503        2      -0.04768144      -0.02803723       0.03824103       0.00000000
Rh       4.07293506       3.91918359       8.21702503        2       0.04695187      -0.02975449       0.03290112       0.00000000
Rh       6.78822510       3.91918359       8.21702503        2       0.00194830       0.00112485       0.00242950       0.00000000
Rh       2.71529004       6.27069374       8.21702503        2       0.00006046       0.00003490       0.06101828       0.00000000
Rh       5.43058008       6.27069374       8.21702503        2       0.05030972      -0.02467153       0.03780176       0.00000000
Rh       8.14587012       6.27069374       8.21702503        2      -0.04812168      -0.02727473       0.03824103       0.00000000
Rh       0.00000000       0.00000000      10.43405007        1      -0.19617775      -0.11326327      -0.50878843       0.00000000
Rh       2.71529004       0.00000000      10.43405007        1      -0.01009456       0.26309947       0.47298638       0.00000000
Rh       5.43058008       0.00000000      10.43405007        1       0.19695093      -0.11112778      -0.50242348       0.00000000
Rh       1.35764502       2.35151015      10.43405007        1       0.22280354      -0.14029188       0.47298638       0.00000000
Rh       4.07293506       2.35151015      10.43405007        1      -0.22640538      -0.13071521       0.47488419       0.00000000
Rh       6.78822510       2.35151015      10.43405007        1      -0.00695835       0.01622392      -0.48089757       0.00000000
Rh       2.71529004       4.70302031      10.43405007        1       0.00223599       0.22612840      -0.50242348       0.00000000
Rh       5.43058008       4.70302031      10.43405007        1       0.01057115      -0.01413806      -0.48089757       0.00000000
Rh       8.14587012       4.70302031      10.43405007        1      -0.01629864      -0.00941002      -0.49220911       0.00000000
O        2.71529004       1.56767344      13.58439007        0       0.00493362       0.00284843      -2.18845826       0.00000000
C        2.71527806       1.56766652      12.39858900        0      -0.00039879      -0.00023024       0.03344652       0.00000000
