29
Lattice="8.145870119269027 0.0 0.0 4.0729350596345135 7.0545304592155516 0.0 0.0 0.0 16.434050067376326" Properties=species:S:1:pos:R:3:tags:I:1:forces:R:3:magmoms:R:1 energy=-198.57761321201698 dipole="-0.23857549493323663 -0.13774162622172517 -0.08936510693639393" magmom=0.0 free_energy=-199.4223524078965 pbc="T T F"
Rh       1.35764502       0.78383672       6.00000000        3      -0.01539322      -0.00888728       0.49076138       0.00000000
Rh       4.07293506       0.78383672       6.00000000        3      -0.00000000      -0.03823437       0.44404303       0.00000000
Rh       6.78822510       0.78383672       6.00000000        3       0.01539322      -0.00888728       0.49076138       0.00000000
Rh       2.71529004       3.13534687       6.00000000        3      -0.03311193       0.01911718       0.44404303       0.00000000
Rh       5.43058008       3.13534687       6.00000000        3       0.03311193       0.01911718       0.44404303       0.00000000
Rh       8.14587012       3.13534687       6.00000000        3       0.00000000       0.13471119       0.32066892       0.00000000
Rh       4.07293506       5.48685702       6.00000000        3      -0.00000000       0.01777456       0.49076138       0.00000000
Rh       6.78822510       5.48685702       6.00000000        3       0.11666332      -0.06735560       0.32066892       0.00000000
Rh       9.50351514       5.48685702       6.00000000        3      -0.11666332      -0.06735560       0.32066892       0.00000000
Rh      -0.00000000       1.56767344       8.21702503        2       0.00000000      -0.08452799      -0.17111903       0.00000000
Rh       2.71529004       1.56767344       8.21702503        2       0.00217733       0.00125708       0.00226634       0.00000000
Rh       5.43058008       1.56767344       8.21702503        2      -0.00217733       0.00125708       0.00226634       0.00000000
Rh       1.35764502       3.91918359       8.21702503        2       0.02589992      -0.01495332       0.05074476       0.00000000
Rh       4.07293506       3.91918359       8.21702503        2       0.00000000      -0.00251417       0.00226634       0.00000000
Rh       6.78822510       3.91918359       8.21702503        2      -0.02589992      -0.01495332       0.05074476       0.00000000
Rh       2.71529004       6.27069374       8.21702503        2       0.07320338       0.04226399      -0.17111903       0.00000000
Rh       5.43058008       6.27069374       8.21702503        2      -0.07320338       0.04226399      -0.17111903       0.00000000
Rh       8.14587012       6.27069374       8.21702503        2      -0.00000000       0.02990665       0.05074476       0.00000000
Rh       0.00000000       0.00000000      10.43405007        1       0.00000000       0.00000000       2.33913529       0.00000000
Rh       2.71529004       0.00000000      10.43405007        1       0.29459784      -0.01116374      -0.52796794       0.00000000
Rh       5.43058008       0.00000000      10.43405007        1      -0.29459784      -0.01116374      -0.52796794       0.00000000
Rh       1.35764502       2.35151015      10.43405007        1       0.13763084       0.26071108      -0.52796794       0.00000000
Rh       4.07293506       2.35151015      10.43405007        1       0.00000000       0.00000000      -0.45327620       0.00000000
Rh       6.78822510       2.35151015      10.43405007        1      -0.13763084       0.26071108      -0.52796794       0.00000000
Rh       2.71529004       4.70302031      10.43405007        1      -0.15696700      -0.24954734      -0.52796794       0.00000000
Rh       5.43058008       4.70302031      10.43405007        1       0.15696700      -0.24954734      -0.52796794       0.00000000
Rh       8.14587012       4.70302031      10.43405007        1       0.00000000       0.00000000      -0.41200025       0.00000000
O        0.00000000       0.00000000      13.58439007        0      -0.00000000       0.00000000      -1.80807510       0.00000000
C        0.00000000       0.00000000      12.40917978        0       0.00000000       0.00000000       0.04905544       0.00000000
