29
Lattice="8.145870119269027 0.0 0.0 4.0729350596345135 7.0545304592155516 0.0 0.0 0.0 16.434050067376326" Properties=species:S:1:pos:R:3:tags:I:1:forces:R:3:magmoms:R:1 energy=-197.93148862009858 dipole="-1.1054265328591824 -0.09396649209037727 -0.1836654924883985" magmom=0.0 free_energy=-198.7855195585288 pbc="T T F"
Rh       1.35764502       0.78383672       6.00000000        3       0.00210863      -0.01482277       0.46856392       0.00000000
Rh       4.07293506       0.78383672       6.00000000        3      -0.01532167      -0.03421112       0.46812288       0.00000000
Rh       6.78822510       0.78383672       6.00000000        3       0.01802572      -0.03276242       0.46557722       0.00000000
Rh       2.71529004       3.13534687       6.00000000        3      -0.04078830       0.07461241       0.38233820       0.00000000
Rh       5.43058008       3.13534687       6.00000000        3       0.00070943       0.02261272       0.46868858       0.00000000
Rh       8.14587012       3.13534687       6.00000000        3       0.04233042       0.07377333       0.37997452       0.00000000
Rh       4.07293506       5.48685702       6.00000000        3      -0.00922902       0.00208595       0.43332271       0.00000000
Rh       6.78822510       5.48685702       6.00000000        3       0.01352900       0.00152270       0.42717636       0.00000000
Rh       9.50351514       5.48685702       6.00000000        3       0.00807992      -0.08886544       0.30177274       0.00000000
Rh      -0.00000000       1.56767344       8.21702503        2      -0.03497137      -0.02882236      -0.08467259       0.00000000
Rh       2.71529004       1.56767344       8.21702503        2       0.03791340      -0.02920939      -0.09315132       0.00000000
Rh       5.43058008       1.56767344       8.21702503        2       0.00231322      -0.01500475       0.01272053       0.00000000
Rh       1.35764502       3.91918359       8.21702503        2      -0.00384853      -0.00828316       0.07212002       0.00000000
Rh       4.07293506       3.91918359       8.21702503        2       0.02025398      -0.01153015       0.05347919       0.00000000
Rh       6.78822510       3.91918359       8.21702503        2      -0.01909349      -0.01258995       0.05113238       0.00000000
Rh       2.71529004       6.27069374       8.21702503        2       0.04178742       0.08448983       0.11336070       0.00000000
Rh       5.43058008       6.27069374       8.21702503        2      -0.00209200       0.01220855      -0.24225338       0.00000000
Rh       8.14587012       6.27069374       8.21702503        2      -0.04187311       0.07990679       0.10977691       0.00000000
Rh       0.00000000       0.00000000      10.43405007        1       0.43661779      -0.05309654       0.94723576       0.00000000
Rh       2.71529004       0.00000000      10.43405007        1      -0.44041860      -0.04423232       0.95609087       0.00000000
Rh       5.43058008       0.00000000      10.43405007        1      -0.00739409       0.02310742      -0.50979166       0.00000000
Rh       1.35764502       2.35151015      10.43405007        1       0.00503059       0.29818622      -0.45413035       0.00000000
Rh       4.07293506       2.35151015      10.43405007        1       0.06257323       0.06156214      -0.48499011       0.00000000
Rh       6.78822510       2.35151015      10.43405007        1      -0.06531435       0.05953805      -0.49584748       0.00000000
Rh       2.71529004       4.70302031      10.43405007        1      -0.07772463      -0.07775868      -0.48748095       0.00000000
Rh       5.43058008       4.70302031      10.43405007        1      -0.00805577      -0.25984499      -0.43679074       0.00000000
Rh       8.14587012       4.70302031      10.43405007        1       0.07701505      -0.07376180      -0.48635904       0.00000000
O        1.35764502       0.00000000      13.58439007        0       0.00252166      -0.00010209      -2.33256257       0.00000000
C        1.35744113      -0.00077795      12.39738439        0      -0.00275477      -0.00722007       0.09423603       0.00000000
