29
Lattice="8.145870119269027 0.0 0.0 4.0729350596345135 7.0545304592155516 0.0 0.0 0.0 16.434050067376326" Properties=species:S:1:pos:R:3:tags:I:1:forces:R:3:magmoms:R:1 energy=-197.9345420798461 dipole="-0.8342769416030974 -0.13068322234660512 -0.12553984893904757" magmom=0.0 free_energy=-198.7887535597778 pbc="T T F"
Rh       1.35764502       0.78383672       6.00000000        3       0.01136261      -0.01395499       0.46177495       0.00000000
Rh       4.07293506       0.78383672       6.00000000        3      -0.01071731      -0.02225641       0.47041797       0.00000000
Rh       6.78822510       0.78383672       6.00000000        3       0.01619371      -0.03619076       0.44503596       0.00000000
Rh       2.71529004       3.13534687       6.00000000        3      -0.02899318       0.08316031       0.36153114       0.00000000
Rh       5.43058008       3.13534687       6.00000000        3      -0.00984472       0.02044935       0.45487563       0.00000000
Rh       8.14587012       3.13534687       6.00000000        3       0.04355187       0.05059709       0.39413229       0.00000000
Rh       4.07293506       5.48685702       6.00000000        3      -0.02926578      -0.00986772       0.40684499       0.00000000
Rh       6.78822510       5.48685702       6.00000000        3       0.00339143       0.00665340       0.44288742       0.00000000
Rh       9.50351514       5.48685702       6.00000000        3       0.03543415      -0.07388070       0.30270831       0.00000000
Rh      -0.00000000       1.56767344       8.21702503        2      -0.02454643      -0.01174646      -0.05441875       0.00000000
Rh       2.71529004       1.56767344       8.21702503        2       0.04330992      -0.04408497      -0.10498933       0.00000000
Rh       5.43058008       1.56767344       8.21702503        2      -0.00393496      -0.00954448       0.01526180       0.00000000
Rh       1.35764502       3.91918359       8.21702503        2      -0.00579710      -0.01602326       0.06562895       0.00000000
Rh       4.07293506       3.91918359       8.21702503        2       0.02532229      -0.01092972       0.05040189       0.00000000
Rh       6.78822510       3.91918359       8.21702503        2      -0.01131923      -0.01238899       0.03416430       0.00000000
Rh       2.71529004       6.27069374       8.21702503        2       0.01139350       0.04046870       0.02523885       0.00000000
Rh       5.43058008       6.27069374       8.21702503        2      -0.01558423       0.00327864      -0.24965549       0.00000000
Rh       8.14587012       6.27069374       8.21702503        2      -0.10854274       0.12763726       0.20502335       0.00000000
Rh       0.00000000       0.00000000      10.43405007        1       0.04774104      -0.00037906       0.26807531       0.00000000
Rh       2.71529004       0.00000000      10.43405007        1      -0.62056040      -0.09340349       1.54066831       0.00000000
Rh       5.43058008       0.00000000      10.43405007        1       0.10534513       0.01790340      -0.50942201       0.00000000
Rh       1.35764502       2.35151015      10.43405007        1      -0.06953612       0.30089609      -0.46052927       0.00000000
Rh       4.07293506       2.35151015      10.43405007        1       0.10008266       0.11639373      -0.50133908       0.00000000
Rh       6.78822510       2.35151015      10.43405007        1      -0.04182629       0.02583774      -0.47622936       0.00000000
Rh       2.71529004       4.70302031      10.43405007        1      -0.05145633      -0.04263325      -0.45420398       0.00000000
Rh       5.43058008       4.70302031      10.43405007        1      -0.07360065      -0.27021299      -0.44700240       0.00000000
Rh       8.14587012       4.70302031      10.43405007        1       0.11039781      -0.12538698      -0.50878500       0.00000000
O        1.35764502       0.00000000      13.58439007        0       0.54562874      -0.00182355      -2.17940831       0.00000000
C        1.61243764      -0.00008815      12.42925673        0      -0.00107684       0.00338699      -0.00088230       0.00000000
