29
Lattice="8.145870119269027 0.0 0.0 4.0729350596345135 7.0545304592155516 0.0 0.0 0.0 16.434050067376326" Properties=species:S:1:pos:R:3:tags:I:1:forces:R:3:magmoms:R:1 energy=-197.77853047327284 dipole="-5.739633375894773 -3.313778874622599 -0.17333452506133992" magmom=0.0 free_energy=-198.6431627542964 pbc="T T F"
Rh       1.35764502       0.78383672       6.00000000        3       0.00386536       0.00223167       0.45298409       0.00000000
Rh       4.07293506       0.78383672       6.00000000        3       0.01227416      -0.04212955       0.42555349       0.00000000
Rh       6.78822510       0.78383672       6.00000000        3      -0.00648591      -0.03751883       0.42522765       0.00000000
Rh       2.71529004       3.13534687       6.00000000        3      -0.03034818       0.03169452       0.42555349       0.00000000
Rh       5.43058008       3.13534687       6.00000000        3      -0.00058620      -0.00033844       0.46932678       0.00000000
Rh       8.14587012       3.13534687       6.00000000        3       0.02902748       0.02846821       0.42535771       0.00000000
Rh       4.07293506       5.48685702       6.00000000        3      -0.03573521       0.01314245       0.42522765       0.00000000
Rh       6.78822510       5.48685702       6.00000000        3       0.03916793       0.01090443       0.42535771       0.00000000
Rh       9.50351514       5.48685702       6.00000000        3       0.00999081       0.00576820       0.30140519       0.00000000
Rh      -0.00000000       1.56767344       8.21702503        2      -0.01416397       0.00603638      -0.16262236       0.00000000
Rh       2.71529004       1.56767344       8.21702503        2       0.01548851       0.00894229      -0.16799166       0.00000000
Rh       5.43058008       1.56767344       8.21702503        2       0.00164604       0.00881250       0.04309807       0.00000000
Rh       1.35764502       3.91918359       8.21702503        2      -0.00749842      -0.06636719       0.12726254       0.00000000
Rh       4.07293506       3.91918359       8.21702503        2       0.00845487      -0.00298074       0.04309807       0.00000000
Rh       6.78822510       3.91918359       8.21702503        2      -0.00651789      -0.00376311       0.04036067       0.00000000
Rh       2.71529004       6.27069374       8.21702503        2       0.06325497       0.03652027       0.12793141       0.00000000
Rh       5.43058008       6.27069374       8.21702503        2      -0.00185433      -0.01528455      -0.16262236       0.00000000
Rh       8.14587012       6.27069374       8.21702503        2      -0.06122488       0.02668977       0.12726254       0.00000000
Rh       0.00000000       0.00000000      10.43405007        1       0.14543413       0.08396643       0.47070008       0.00000000
Rh       2.71529004       0.00000000      10.43405007        1      -0.14623081       0.08846138       0.48211897       0.00000000
Rh       5.43058008       0.00000000      10.43405007        1      -0.00480212       0.00568772      -0.49436408       0.00000000
Rh       1.35764502       2.35151015      10.43405007        1       0.00349440      -0.17087029       0.48211897       0.00000000
Rh       4.07293506       2.35151015      10.43405007        1       0.15733582       0.09083788      -0.49872576       0.00000000
Rh       6.78822510       2.35151015      10.43405007        1      -0.16370199       0.08549091      -0.50591410       0.00000000
Rh       2.71529004       4.70302031      10.43405007        1       0.00252465      -0.00700262      -0.49436408       0.00000000
Rh       5.43058008       4.70302031      10.43405007        1      -0.00781370      -0.18451553      -0.50591410       0.00000000
Rh       8.14587012       4.70302031      10.43405007        1      -0.00262955      -0.00151817      -0.49850489       0.00000000
O        1.35764502       0.78383672      13.58439007        0      -0.00154095      -0.00088967      -2.22723140       0.00000000
C        1.35749874       0.78375226      12.39868435        0      -0.00238338      -0.00137605       0.07121601       0.00000000
