27
Lattice="8.145870119269027 0.0 0.0 4.0729350596345135 7.0545304592155516 0.0 0.0 0.0 16.434050067376326" Properties=species:S:1:pos:R:3:tags:I:1:magmoms:R:1 energy=-182.7977149721069 dipole="-0.23457606268240455 -0.13543255293513937 5.7579867167004665e-05" magmom=0.0 free_energy=-183.6483006738925 pbc="T T F"
Rh       1.35764502       0.78383672       6.00000000        3       0.00000000
Rh       4.07293506       0.78383672       6.00000000        3       0.00000000
Rh       6.78822510       0.78383672       6.00000000        3       0.00000000
Rh       2.71529004       3.13534687       6.00000000        3       0.00000000
Rh       5.43058008       3.13534687       6.00000000        3       0.00000000
Rh       8.14587012       3.13534687       6.00000000        3       0.00000000
Rh       4.07293506       5.48685702       6.00000000        3       0.00000000
Rh       6.78822510       5.48685702       6.00000000        3       0.00000000
Rh       9.50351514       5.48685702       6.00000000        3       0.00000000
Rh      -0.00000000       1.56767344       8.21702503        2       0.00000000
Rh       2.71529004       1.56767344       8.21702503        2       0.00000000
Rh       5.43058008       1.56767344       8.21702503        2       0.00000000
Rh       1.35764502       3.91918359       8.21702503        2       0.00000000
Rh       4.07293506       3.91918359       8.21702503        2       0.00000000
Rh       6.78822510       3.91918359       8.21702503        2       0.00000000
Rh       2.71529004       6.27069374       8.21702503        2       0.00000000
Rh       5.43058008       6.27069374       8.21702503        2       0.00000000
Rh       8.14587012       6.27069374       8.21702503        2       0.00000000
Rh       0.00000000       0.00000000      10.43405007        1       0.00000000
Rh       2.71529004       0.00000000      10.43405007        1       0.00000000
Rh       5.43058008       0.00000000      10.43405007        1       0.00000000
Rh       1.35764502       2.35151015      10.43405007        1       0.00000000
Rh       4.07293506       2.35151015      10.43405007        1       0.00000000
Rh       6.78822510       2.35151015      10.43405007        1       0.00000000
Rh       2.71529004       4.70302031      10.43405007        1       0.00000000
Rh       5.43058008       4.70302031      10.43405007        1       0.00000000
Rh       8.14587012       4.70302031      10.43405007        1       0.00000000
