28
Lattice="8.145870119269027 0.0 0.0 4.0729350596345135 7.0545304592155516 0.0 0.0 0.0 16.434050067376326" Properties=species:S:1:pos:R:3:tags:I:1:forces:R:3:magmoms:R:1 energy=-188.78338659210687 dipole="-0.1381044537990133 -0.07973464357716276 -0.1259739418339542" magmom=0.0 free_energy=-189.6440416162625 pbc="T T F"
Rh       1.35764502       0.78383672       6.00000000        3      -0.05403497      -0.03119711       0.46188290       0.00000000
Rh       4.07293506       0.78383672       6.00000000        3       0.06008629      -0.03454947       0.45307021       0.00000000
Rh       6.78822510       0.78383672       6.00000000        3       0.00253389      -0.04805362       0.35687347       0.00000000
Rh       2.71529004       3.13534687       6.00000000        3       0.00012243       0.06931099       0.45307021       0.00000000
Rh       5.43058008       3.13534687       6.00000000        3      -0.04948437      -0.02856982       0.46923624       0.00000000
Rh       8.14587012       3.13534687       6.00000000        3       0.04902108      -0.02673713       0.47508536       0.00000000
Rh       4.07293506       5.48685702       6.00000000        3      -0.04034871       0.02622123       0.35687347       0.00000000
Rh       6.78822510       5.48685702       6.00000000        3       0.00135551       0.05582207       0.47508536       0.00000000
Rh       9.50351514       5.48685702       6.00000000        3       0.04519949       0.02609594       0.35012803       0.00000000
Rh      -0.00000000       1.56767344       8.21702503        2       0.05445771       0.06671572       0.00929751       0.00000000
Rh       2.71529004       1.56767344       8.21702503        2      -0.00763804      -0.00440982      -0.93564879       0.00000000
Rh       5.43058008       1.56767344       8.21702503        2      -0.05218196       0.06201735       0.00786829       0.00000000
Rh       1.35764502       3.91918359       8.21702503        2      -0.02871503      -0.08740625       0.01224703       0.00000000
Rh       4.07293506       3.91918359       8.21702503        2       0.02761762      -0.07619957       0.00786829       0.00000000
Rh       6.78822510       3.91918359       8.21702503        2       0.00543302       0.00313676      -0.00835134       0.00000000
Rh       2.71529004       6.27069374       8.21702503        2       0.00306772       0.00177115      -0.04011955       0.00000000
Rh       5.43058008       6.27069374       8.21702503        2       0.08500636       0.01380390       0.00929751       0.00000000
Rh       8.14587012       6.27069374       8.21702503        2      -0.09005355       0.01883517       0.01224703       0.00000000
Rh       0.00000000       0.00000000      10.43405007        1      -0.31564974      -0.18224046      -0.55576401       0.00000000
Rh       2.71529004       0.00000000      10.43405007        1      -0.00341302      -0.51528976       0.08041232       0.00000000
Rh       5.43058008       0.00000000      10.43405007        1       0.30954163      -0.17539775      -0.54174049       0.00000000
Rh       1.35764502       2.35151015      10.43405007        1      -0.44796053       0.25468912       0.08041232       0.00000000
Rh       4.07293506       2.35151015      10.43405007        1       0.42871178       0.24751686       0.09725444       0.00000000
Rh       6.78822510       2.35151015      10.43405007        1      -0.00140535      -0.01269273      -0.48852219       0.00000000
Rh       2.71529004       4.70302031      10.43405007        1       0.00287191       0.35576979      -0.54174049       0.00000000
Rh       5.43058008       4.70302031      10.43405007        1      -0.01169490       0.00512930      -0.48852219       0.00000000
Rh       8.14587012       4.70302031      10.43405007        1       0.01976936       0.01141385      -0.48520826       0.00000000
O        2.71624721       1.56822606      11.72033902        0       0.00944242       0.00545158       0.05020146       0.00000000
