28
Lattice="8.145870119269027 0.0 0.0 4.0729350596345135 7.0545304592155516 0.0 0.0 0.0 16.434050067376326" Properties=species:S:1:pos:R:3:tags:I:1:forces:R:3:magmoms:R:1 energy=-188.9132093765236 dipole="-1.8625063319445017 -1.0753185321155192 -0.15138436257853144" magmom=0.0 free_energy=-189.75858965037742 pbc="T T F"
Rh       1.35764502       0.78383672       6.00000000        3      -0.00023242      -0.00013419       0.45286036       0.00000000
Rh       4.07293506       0.78383672       6.00000000        3       0.00255035      -0.05584907       0.48085369       0.00000000
Rh       6.78822510       0.78383672       6.00000000        3      -0.00030694      -0.05988876       0.48296213       0.00000000
Rh       2.71529004       3.13534687       6.00000000        3      -0.04709154       0.03013320       0.48085369       0.00000000
Rh       5.43058008       3.13534687       6.00000000        3       0.00318465       0.00183866       0.47073838       0.00000000
Rh       8.14587012       3.13534687       6.00000000        3       0.04732906       0.02711233       0.47739423       0.00000000
Rh       4.07293506       5.48685702       6.00000000        3      -0.05201866       0.02967856       0.48296213       0.00000000
Rh       6.78822510       5.48685702       6.00000000        3       0.04714450       0.02743200       0.47739423       0.00000000
Rh       9.50351514       5.48685702       6.00000000        3       0.01111143       0.00641519      -0.02007408       0.00000000
Rh      -0.00000000       1.56767344       8.21702503        2      -0.10446691       0.06453214      -0.38613882       0.00000000
Rh       2.71529004       1.56767344       8.21702503        2       0.10391835       0.05999729      -0.38701749       0.00000000
Rh       5.43058008       1.56767344       8.21702503        2       0.00171527      -0.00639755       0.04838038       0.00000000
Rh       1.35764502       3.91918359       8.21702503        2       0.00117104      -0.00872904       0.07495797       0.00000000
Rh       4.07293506       3.91918359       8.21702503        2      -0.00468281       0.00468425       0.04838038       0.00000000
Rh       6.78822510       3.91918359       8.21702503        2       0.00812606       0.00469158       0.04889580       0.00000000
Rh       2.71529004       6.27069374       8.21702503        2       0.00704602       0.00406802       0.08017893       0.00000000
Rh       5.43058008       6.27069374       8.21702503        2       0.00365302      -0.12273707      -0.38613882       0.00000000
Rh       8.14587012       6.27069374       8.21702503        2      -0.00697405       0.00537867       0.07495797       0.00000000
Rh       0.00000000       0.00000000      10.43405007        1      -0.11194473      -0.06463132       0.08501809       0.00000000
Rh       2.71529004       0.00000000      10.43405007        1       0.11088199      -0.07129147       0.09194023       0.00000000
Rh       5.43058008       0.00000000      10.43405007        1      -0.00696609       0.02033909      -0.55211495       0.00000000
Rh       1.35764502       2.35151015      10.43405007        1      -0.00629923       0.13167236       0.09194023       0.00000000
Rh       4.07293506       2.35151015      10.43405007        1       0.33391094       0.19278357      -0.49410465       0.00000000
Rh       6.78822510       2.35151015      10.43405007        1      -0.33299802       0.18561449      -0.48972827       0.00000000
Rh       2.71529004       4.70302031      10.43405007        1       0.01413112      -0.01620236      -0.55211495       0.00000000
Rh       5.43058008       4.70302031      10.43405007        1      -0.00575215      -0.38119199      -0.48972827       0.00000000
Rh       8.14587012       4.70302031      10.43405007        1      -0.01821389      -0.01051580      -0.55246652       0.00000000
O        1.35880514       0.78450651      11.74941043        0       0.00173334       0.00100074      -0.07137751       0.00000000
