28
Lattice="8.145870119269027 0.0 0.0 4.0729350596345135 7.0545304592155516 0.0 0.0 0.0 16.434050067376326" Properties=species:S:1:pos:R:3:tags:I:1:forces:R:3:magmoms:R:1 energy=-187.61670659985703 dipole="-0.26591961229168826 -0.1535287597394314 -0.31178859936258285" magmom=0.0 free_energy=-188.47677505253264 pbc="T T F"
Rh       1.35764502       0.78383672       6.00000000        3      -0.00411283      -0.00237454       0.43690082       0.00000000
Rh       4.07293506       0.78383672       6.00000000        3       0.00000000      -0.04253107       0.43043211       0.00000000
Rh       6.78822510       0.78383672       6.00000000        3       0.00411283      -0.00237454       0.43690082       0.00000000
Rh       2.71529004       3.13534687       6.00000000        3      -0.03683299       0.02126554       0.43043211       0.00000000
Rh       5.43058008       3.13534687       6.00000000        3       0.03683299       0.02126554       0.43043211       0.00000000
Rh       8.14587012       3.13534687       6.00000000        3       0.00000000       0.07791138       0.36007644       0.00000000
Rh       4.07293506       5.48685702       6.00000000        3       0.00000000       0.00474909       0.43690082       0.00000000
Rh       6.78822510       5.48685702       6.00000000        3       0.06747323      -0.03895569       0.36007644       0.00000000
Rh       9.50351514       5.48685702       6.00000000        3      -0.06747323      -0.03895569       0.36007644       0.00000000
Rh      -0.00000000       1.56767344       8.21702503        2       0.00000000      -0.14245575       0.10484285       0.00000000
Rh       2.71529004       1.56767344       8.21702503        2      -0.00546189      -0.00315342       0.00464219       0.00000000
Rh       5.43058008       1.56767344       8.21702503        2       0.00546189      -0.00315342       0.00464219       0.00000000
Rh       1.35764502       3.91918359       8.21702503        2       0.04340147      -0.02505785      -0.02234342       0.00000000
Rh       4.07293506       3.91918359       8.21702503        2       0.00000000       0.00630685       0.00464219       0.00000000
Rh       6.78822510       3.91918359       8.21702503        2      -0.04340147      -0.02505785      -0.02234342       0.00000000
Rh       2.71529004       6.27069374       8.21702503        2       0.12337030       0.07122787       0.10484285       0.00000000
Rh       5.43058008       6.27069374       8.21702503        2      -0.12337030       0.07122787       0.10484285       0.00000000
Rh       8.14587012       6.27069374       8.21702503        2       0.00000000       0.05011570      -0.02234342       0.00000000
Rh       0.00000000       0.00000000      10.43405007        1       0.00000000       0.00000000      -0.20552191       0.00000000
Rh       2.71529004       0.00000000      10.43405007        1       0.35104240      -0.01345508      -0.49332687       0.00000000
Rh       5.43058008       0.00000000      10.43405007        1      -0.35104240      -0.01345508      -0.49332687       0.00000000
Rh       1.35764502       2.35151015      10.43405007        1       0.16386876       0.31073917      -0.49332687       0.00000000
Rh       4.07293506       2.35151015      10.43405007        1       0.00000000      -0.00000000      -0.46486953       0.00000000
Rh       6.78822510       2.35151015      10.43405007        1      -0.16386876       0.31073917      -0.49332687       0.00000000
Rh       2.71529004       4.70302031      10.43405007        1      -0.18717364      -0.29728409      -0.49332687       0.00000000
Rh       5.43058008       4.70302031      10.43405007        1       0.18717364      -0.29728409      -0.49332687       0.00000000
Rh       8.14587012       4.70302031      10.43405007        1       0.00000000       0.00000000      -0.46372026       0.00000000
O        0.00000000       0.00000000      12.20667644        0       0.00000000       0.00000000       0.00526231       0.00000000
