28
Lattice="8.145870119269027 0.0 0.0 4.0729350596345135 7.0545304592155516 0.0 0.0 0.0 16.434050067376326" Properties=species:S:1:pos:R:3:tags:I:1:forces:R:3:magmoms:R:1 energy=-188.91305570378168 dipole="-1.8555636950508236 -1.0401079738834833 -0.14662945758398577" magmom=0.0 free_energy=-189.75875132186485 pbc="T T F"
Rh       1.35764502       0.78383672       6.00000000        3      -0.00021929       0.00000847       0.43906010       0.00000000
Rh       4.07293506       0.78383672       6.00000000        3       0.00358141      -0.05658117       0.46891881       0.00000000
Rh       6.78822510       0.78383672       6.00000000        3      -0.00115621      -0.06024557       0.47063108       0.00000000
Rh       2.71529004       3.13534687       6.00000000        3      -0.04746001       0.03143489       0.46899044       0.00000000
Rh       5.43058008       3.13534687       6.00000000        3       0.00336350       0.00172431       0.45620398       0.00000000
Rh       8.14587012       3.13534687       6.00000000        3       0.04770828       0.02798346       0.46531877       0.00000000
Rh       4.07293506       5.48685702       6.00000000        3      -0.05234021       0.02912521       0.47012201       0.00000000
Rh       6.78822510       5.48685702       6.00000000        3       0.04751262       0.02704754       0.46469730       0.00000000
Rh       9.50351514       5.48685702       6.00000000        3       0.01208348       0.00916202      -0.03648578       0.00000000
Rh      -0.00000000       1.56767344       8.21702503        2      -0.10949433       0.06901084      -0.39684508       0.00000000
Rh       2.71529004       1.56767344       8.21702503        2       0.10995519       0.06439578      -0.40042236       0.00000000
Rh       5.43058008       1.56767344       8.21702503        2       0.00162021      -0.00878504       0.04770685       0.00000000
Rh       1.35764502       3.91918359       8.21702503        2       0.00103503      -0.01115859       0.07079653       0.00000000
Rh       4.07293506       3.91918359       8.21702503        2      -0.00669645       0.00574792       0.04756042       0.00000000
Rh       6.78822510       3.91918359       8.21702503        2       0.01003369       0.00578103       0.04804176       0.00000000
Rh       2.71529004       6.27069374       8.21702503        2       0.00953338       0.00509829       0.08097435       0.00000000
Rh       5.43058008       6.27069374       8.21702503        2       0.00420314      -0.12827869      -0.39224029       0.00000000
Rh       8.14587012       6.27069374       8.21702503        2      -0.00949223       0.00630780       0.07406521       0.00000000
Rh       0.00000000       0.00000000      10.43405007        1      -0.17084694      -0.09665478       0.07221070       0.00000000
Rh       2.71529004       0.00000000      10.43405007        1       0.17989758      -0.10956545       0.07198494       0.00000000
Rh       5.43058008       0.00000000      10.43405007        1      -0.00743889       0.02000279      -0.53451807       0.00000000
Rh       1.35764502       2.35151015      10.43405007        1      -0.00654218       0.23715569       0.05723430       0.00000000
Rh       4.07293506       2.35151015      10.43405007        1       0.35110972       0.20128707      -0.48767270       0.00000000
Rh       6.78822510       2.35151015      10.43405007        1      -0.34861596       0.19252630      -0.48212687       0.00000000
Rh       2.71529004       4.70302031      10.43405007        1       0.01353421      -0.01636822      -0.53494922       0.00000000
Rh       5.43058008       4.70302031      10.43405007        1      -0.00626910      -0.39569037      -0.48111026       0.00000000
Rh       8.14587012       4.70302031      10.43405007        1      -0.01781424      -0.01027770      -0.53568691       0.00000000
O        1.36140310       0.79187094      11.74185874        0      -0.01493978      -0.03957510       0.03385830       0.00000000
