
  ___ ___ ___ _ _ _  
 |   |   |_  | | | | 
 | | | | | . | | | | 
 |__ |  _|___|_____|  22.8.0
 |___|_|             

User:   gotols@vera33-2
Date:   Wed Feb 15 09:43:27 2023
Arch:   x86_64
Pid:    3133821
CWD:    /cephyr/users/gotols/Vera/TIF320-Computational-materials-and-molecular-physics-Assignments
Python: 3.10.4
gpaw:   /apps/Arch/software/GPAW/22.8.0-foss-2022a/lib/python3.10/site-packages/gpaw
_gpaw:  /apps/Arch/software/GPAW/22.8.0-foss-2022a/lib/python3.10/site-packages/
        _gpaw.cpython-310-x86_64-linux-gnu.so
ase:    /apps/Arch/software/ASE/3.22.1-foss-2022a/lib/python3.10/site-packages/ase (version 3.22.1)
numpy:  /apps/Arch/software/SciPy-bundle/2022.05-foss-2022a/lib/python3.10/site-packages/numpy (version 1.22.3)
scipy:  /apps/Arch/software/SciPy-bundle/2022.05-foss-2022a/lib/python3.10/site-packages/scipy (version 1.8.1)
libxc:  5.2.3
units:  Angstrom and eV
cores: 1
OpenMP: False
OMP_NUM_THREADS: 1

Input parameters:
  kpts: [12 12 12]
  mode: {ecut: 450.00000000000006,
         name: pw}
  xc: PBE

System changes: positions, numbers, cell, pbc, initial_charges, initial_magmoms 

Initialize ...

species:
  Au:
    name: Gold
    id: b12133f335f6ca0d89c4b1ccaa844e9a
    Z: 79.0
    valence: 11
    core: 68
    charge: 0.0
    file: /apps/Common/software/GPAW-setups/0.9.20000/Au.PBE.gz
    compensation charges: {type: gauss,
                           rc: 0.42,
                           lmax: 2}
    cutoffs: {filter: 2.33,
              core: 2.81}
    valence states:
      #              energy  rcut
      - 6s(1.00)    -5.728   1.323
      - 6p(0.00)    -0.775   1.323
      - 5d(10.00)    -6.891   1.323
      -  s          21.484   1.323
      -  p          26.436   1.323
      -  d          20.321   1.323
  
    # Using partial waves for Au as LCAO basis

Reference energy: -516598.271109  # eV

Spin-paired calculation

Convergence criteria:
 Maximum [total energy] change in last 3 cyles: 0.0005 eV / electron
 Maximum integral of absolute [dens]ity change: 0.0001 electrons / valence electron
 Maximum integral of absolute [eigenst]ate change: 4e-08 eV^2 / valence electron
 Maximum number of scf [iter]ations: 333
 (Square brackets indicate name in SCF output, whereas a 'c' in
 the SCF output indicates the quantity has converged.)

Symmetries present (total): 48

  ( 1  0  0)  ( 1  0  0)  ( 1  0  0)  ( 1  0  0)  ( 1  0 -1)  ( 1  0 -1)
  ( 1  0 -1)  ( 1 -1  0)  ( 0  1  0)  ( 0  0  1)  ( 1  0  0)  ( 1 -1  0)
  ( 1 -1  0)  ( 1  0 -1)  ( 0  0  1)  ( 0  1  0)  ( 1 -1  0)  ( 1  0  0)

  ( 1  0 -1)  ( 1  0 -1)  ( 1 -1  0)  ( 1 -1  0)  ( 1 -1  0)  ( 1 -1  0)
  ( 0  1 -1)  ( 0  0 -1)  ( 1  0  0)  ( 1  0 -1)  ( 0 -1  1)  ( 0 -1  0)
  ( 0  0 -1)  ( 0  1 -1)  ( 1  0 -1)  ( 1  0  0)  ( 0 -1  0)  ( 0 -1  1)

  ( 0  1  0)  ( 0  1  0)  ( 0  1  0)  ( 0  1  0)  ( 0  1 -1)  ( 0  1 -1)
  ( 1  0  0)  ( 0  1 -1)  ( 0  0  1)  (-1  1  0)  ( 1  0 -1)  ( 0  1  0)
  ( 0  0  1)  (-1  1  0)  ( 1  0  0)  ( 0  1 -1)  ( 0  0 -1)  (-1  1  0)

  ( 0  1 -1)  ( 0  1 -1)  ( 0  0  1)  ( 0  0  1)  ( 0  0  1)  ( 0  0  1)
  ( 0  0 -1)  (-1  1  0)  ( 1  0  0)  ( 0  1  0)  ( 0 -1  1)  (-1  0  1)
  ( 1  0 -1)  ( 0  1  0)  ( 0  1  0)  ( 1  0  0)  (-1  0  1)  ( 0 -1  1)

  ( 0  0 -1)  ( 0  0 -1)  ( 0  0 -1)  ( 0  0 -1)  ( 0 -1  1)  ( 0 -1  1)
  ( 1  0 -1)  ( 0  1 -1)  ( 0 -1  0)  (-1  0  0)  ( 1 -1  0)  ( 0  0  1)
  ( 0  1 -1)  ( 1  0 -1)  (-1  0  0)  ( 0 -1  0)  ( 0 -1  0)  (-1  0  1)

  ( 0 -1  1)  ( 0 -1  1)  ( 0 -1  0)  ( 0 -1  0)  ( 0 -1  0)  ( 0 -1  0)
  ( 0 -1  0)  (-1  0  1)  ( 1 -1  0)  ( 0  0 -1)  ( 0 -1  1)  (-1  0  0)
  ( 1 -1  0)  ( 0  0  1)  ( 0 -1  1)  (-1  0  0)  ( 1 -1  0)  ( 0  0 -1)

  (-1  1  0)  (-1  1  0)  (-1  1  0)  (-1  1  0)  (-1  0  1)  (-1  0  1)
  ( 0  1  0)  ( 0  1 -1)  (-1  0  1)  (-1  0  0)  ( 0  0  1)  ( 0 -1  1)
  ( 0  1 -1)  ( 0  1  0)  (-1  0  0)  (-1  0  1)  ( 0 -1  1)  ( 0  0  1)

  (-1  0  1)  (-1  0  1)  (-1  0  0)  (-1  0  0)  (-1  0  0)  (-1  0  0)
  (-1  1  0)  (-1  0  0)  ( 0  0 -1)  ( 0 -1  0)  (-1  1  0)  (-1  0  1)
  (-1  0  0)  (-1  1  0)  ( 0 -1  0)  ( 0  0 -1)  (-1  0  1)  (-1  1  0)
Note: your k-points are not as symmetric as your crystal!

1728 k-points: 12 x 12 x 12 Monkhorst-Pack grid
182 k-points in the irreducible part of the Brillouin zone
       k-points in crystal coordinates                weights
   0:     0.04166667    0.04166667   -0.04166667          6/1728
   1:     0.04166667    0.04166667    0.04166667          2/1728
   2:     0.12500000   -0.04166667   -0.04166667          6/1728
   3:     0.12500000    0.04166667   -0.12500000         12/1728
   4:     0.12500000    0.04166667   -0.04166667         12/1728
   5:     0.12500000    0.04166667    0.04166667          6/1728
   6:     0.12500000    0.12500000   -0.12500000          6/1728
   7:     0.12500000    0.12500000   -0.04166667          6/1728
   8:     0.12500000    0.12500000    0.04166667          6/1728
   9:     0.12500000    0.12500000    0.12500000          2/1728
          ...
 181:     0.45833333    0.45833333    0.45833333          2/1728

Wave functions: Plane wave expansion
  Cutoff energy: 450.000 eV
  Number of coefficients (min, max): 374, 396
  Pulay-stress correction: 0.000000 eV/Ang^3 (de/decut=0.000000)
  Using FFTW library
  ScaLapack parameters: grid=1x1, blocksize=None
  Wavefunction extrapolation:
    Improved wavefunction reuse through dual PAW basis 

Occupation numbers: Fermi-Dirac:
  width: 0.1000  # eV
 

Eigensolver
   Davidson(niter=2) 

Densities:
  Coarse grid: 15*15*15 grid
  Fine grid: 30*30*30 grid
  Total Charge: 0.000000 

Density mixing:
  Method: separate
  Backend: pulay
  Linear mixing parameter: 0.05
  old densities: 5
  Damping of long wavelength oscillations: 50 

Hamiltonian:
  XC and Coulomb potentials evaluated on a 30*30*30 grid
  Using the PBE Exchange-Correlation functional
  External potential:
    NoExternalPotential
 

XC parameters: PBE with 2 nearest neighbor stencil

Memory estimate:
  Process memory now: 261.24 MiB
  Calculator: 21.53 MiB
    Density: 1.34 MiB
      Arrays: 0.67 MiB
      Localized functions: 0.41 MiB
      Mixer: 0.26 MiB
    Hamiltonian: 0.45 MiB
      Arrays: 0.44 MiB
      XC: 0.00 MiB
      Poisson: 0.00 MiB
      vbar: 0.01 MiB
    Wavefunctions: 19.75 MiB
      Arrays psit_nG: 9.90 MiB
      Eigensolver: 0.10 MiB
      Projections: 0.45 MiB
      Projectors: 8.07 MiB
      PW-descriptor: 1.23 MiB

Total number of cores used: 1

Number of atoms: 1
Number of atomic orbitals: 9
Number of bands in calculation: 9
Number of valence electrons: 11
Bands to converge: occupied

... initialized

Initializing position-dependent things.

Density initialized from atomic densities
Creating initial wave functions:
  9 bands from LCAO basis set

                
                
                
       Au       
                
                
                
                

Positions:
   0 Au     0.000000    0.000000    0.000000    ( 0.0000,  0.0000,  0.0000)

Unit cell:
           periodic     x           y           z      points  spacing
  1. axis:    yes    0.000000    2.076000    2.076000    15     0.1598
  2. axis:    yes    2.076000    0.000000    2.076000    15     0.1598
  3. axis:    yes    2.076000    2.076000    0.000000    15     0.1598

  Lengths:   2.935907   2.935907   2.935907
  Angles:   60.000000  60.000000  60.000000

Effective grid spacing dv^(1/3) = 0.1744

     iter     time        total  log10-change:
                         energy  eigst   dens
iter:   1 09:43:30    -3.417610
iter:   2 09:43:31    -3.366239  -2.06  -1.32
iter:   3 09:43:32    -3.186197  -1.45  -1.35
iter:   4 09:43:33    -3.149035  -2.91  -1.86
iter:   5 09:43:35    -3.149385  -2.55  -2.06
iter:   6 09:43:36    -3.143739  -3.52  -2.25
iter:   7 09:43:37    -3.143797  -5.95  -2.98
iter:   8 09:43:38    -3.143646c -4.50  -2.91
iter:   9 09:43:39    -3.143611c -5.94  -3.43
iter:  10 09:43:40    -3.143611c -8.37c -4.21c

Converged after 10 iterations.

Dipole moment: (-0.000000, -0.000000, -0.000000) |e|*Ang

Energy contributions relative to reference atoms: (reference = -516598.271109)

Kinetic:         -8.706957
Potential:       +7.041075
External:        +0.000000
XC:              -1.602158
Entropy (-ST):   -0.008549
Local:           +0.128703
--------------------------
Free energy:     -3.147886
Extrapolated:    -3.143611

Showing only first 2 kpts
 Kpt  Band  Eigenvalues  Occupancy
  0     3      4.78498    2.00000
  0     4      5.99780    2.00000
  0     5      6.11146    2.00000
  0     6     25.03346    0.00000

  1     3      4.71973    2.00000
  1     4      6.07624    2.00000
  1     5      6.07624    2.00000
  1     6     24.90565    0.00000


Fermi level: 9.16742

No gap
Writing to Assignment 4/output/Au_calculation_a=4.15.gpw (mode='')

Timing:                              incl.     excl.
-----------------------------------------------------------
Hamiltonian:                         0.074     0.000   0.0% |
 Atomic:                             0.063     0.000   0.0% |
  XC Correction:                     0.062     0.062   0.5% |
 Calculate atomic Hamiltonians:      0.000     0.000   0.0% |
 Communicate:                        0.000     0.000   0.0% |
 Initialize Hamiltonian:             0.000     0.000   0.0% |
 Poisson:                            0.000     0.000   0.0% |
 XC 3D grid:                         0.010     0.010   0.1% |
LCAO initialization:                 1.216     0.040   0.3% |
 LCAO eigensolver:                   0.204     0.005   0.0% |
  Calculate projections:             0.003     0.003   0.0% |
  DenseAtomicCorrection:             0.010     0.010   0.1% |
  Distribute overlap matrix:         0.002     0.002   0.0% |
  Orbital Layouts:                   0.026     0.026   0.2% |
  Potential matrix:                  0.123     0.123   0.9% |
  Sum over cells:                    0.034     0.034   0.2% |
 LCAO to grid:                       0.571     0.571   4.2% |-|
 Set positions (LCAO WFS):           0.401     0.055   0.4% |
  Basic WFS set positions:           0.001     0.001   0.0% |
  Basis functions set positions:     0.000     0.000   0.0% |
  P tci:                             0.096     0.096   0.7% |
  ST tci:                            0.241     0.241   1.8% ||
  mktci:                             0.008     0.008   0.1% |
PWDescriptor:                        0.014     0.014   0.1% |
SCF-cycle:                          12.005     0.437   3.2% ||
 Davidson:                          10.506     2.692  19.6% |-------|
  Apply H:                           1.014     0.912   6.6% |--|
   HMM T:                            0.102     0.102   0.7% |
  Subspace diag:                     1.877     0.105   0.8% |
   calc_h_matrix:                    1.343     0.322   2.3% ||
    Apply H:                         1.021     0.912   6.6% |--|
     HMM T:                          0.109     0.109   0.8% |
   diagonalize:                      0.276     0.276   2.0% ||
   rotate_psi:                       0.153     0.153   1.1% |
  calc. matrices:                    3.794     1.772  12.9% |----|
   Apply H:                          2.022     1.814  13.2% |----|
    HMM T:                           0.208     0.208   1.5% ||
  diagonalize:                       0.928     0.928   6.8% |--|
  rotate_psi:                        0.201     0.201   1.5% ||
 Density:                            0.379     0.000   0.0% |
  Atomic density matrices:           0.021     0.021   0.2% |
  Mix:                               0.013     0.013   0.1% |
  Multipole moments:                 0.001     0.001   0.0% |
  Pseudo density:                    0.344     0.275   2.0% ||
   Symmetrize density:               0.069     0.069   0.5% |
 Hamiltonian:                        0.605     0.002   0.0% |
  Atomic:                            0.519     0.004   0.0% |
   XC Correction:                    0.515     0.515   3.7% ||
  Calculate atomic Hamiltonians:     0.004     0.004   0.0% |
  Communicate:                       0.000     0.000   0.0% |
  Poisson:                           0.001     0.001   0.0% |
  XC 3D grid:                        0.079     0.079   0.6% |
 Orthonormalize:                     0.079     0.010   0.1% |
  calc_s_matrix:                     0.025     0.025   0.2% |
  inverse-cholesky:                  0.011     0.011   0.1% |
  projections:                       0.026     0.026   0.2% |
  rotate_psi_s:                      0.006     0.006   0.0% |
Set symmetry:                        0.080     0.080   0.6% |
Other:                               0.338     0.338   2.5% ||
-----------------------------------------------------------
Total:                                        13.726 100.0%

Memory usage: 261.69 MiB
Date: Wed Feb 15 09:43:40 2023
