
  ___ ___ ___ _ _ _  
 |   |   |_  | | | | 
 | | | | | . | | | | 
 |__ |  _|___|_____|  22.8.0
 |___|_|             

User:   gotols@vera33-2
Date:   Wed Feb 15 09:42:45 2023
Arch:   x86_64
Pid:    3133821
CWD:    /cephyr/users/gotols/Vera/TIF320-Computational-materials-and-molecular-physics-Assignments
Python: 3.10.4
gpaw:   /apps/Arch/software/GPAW/22.8.0-foss-2022a/lib/python3.10/site-packages/gpaw
_gpaw:  /apps/Arch/software/GPAW/22.8.0-foss-2022a/lib/python3.10/site-packages/
        _gpaw.cpython-310-x86_64-linux-gnu.so
ase:    /apps/Arch/software/ASE/3.22.1-foss-2022a/lib/python3.10/site-packages/ase (version 3.22.1)
numpy:  /apps/Arch/software/SciPy-bundle/2022.05-foss-2022a/lib/python3.10/site-packages/numpy (version 1.22.3)
scipy:  /apps/Arch/software/SciPy-bundle/2022.05-foss-2022a/lib/python3.10/site-packages/scipy (version 1.8.1)
libxc:  5.2.3
units:  Angstrom and eV
cores: 1
OpenMP: False
OMP_NUM_THREADS: 1

Input parameters:
  kpts: [12 12 12]
  mode: {ecut: 450.00000000000006,
         name: pw}
  xc: PBE

System changes: positions, numbers, cell, pbc, initial_charges, initial_magmoms 

Initialize ...

species:
  Au:
    name: Gold
    id: b12133f335f6ca0d89c4b1ccaa844e9a
    Z: 79.0
    valence: 11
    core: 68
    charge: 0.0
    file: /apps/Common/software/GPAW-setups/0.9.20000/Au.PBE.gz
    compensation charges: {type: gauss,
                           rc: 0.42,
                           lmax: 2}
    cutoffs: {filter: 2.33,
              core: 2.81}
    valence states:
      #              energy  rcut
      - 6s(1.00)    -5.728   1.323
      - 6p(0.00)    -0.775   1.323
      - 5d(10.00)    -6.891   1.323
      -  s          21.484   1.323
      -  p          26.436   1.323
      -  d          20.321   1.323
  
    # Using partial waves for Au as LCAO basis

Reference energy: -516598.271109  # eV

Spin-paired calculation

Convergence criteria:
 Maximum [total energy] change in last 3 cyles: 0.0005 eV / electron
 Maximum integral of absolute [dens]ity change: 0.0001 electrons / valence electron
 Maximum integral of absolute [eigenst]ate change: 4e-08 eV^2 / valence electron
 Maximum number of scf [iter]ations: 333
 (Square brackets indicate name in SCF output, whereas a 'c' in
 the SCF output indicates the quantity has converged.)

Symmetries present (total): 48

  ( 1  0  0)  ( 1  0  0)  ( 1  0  0)  ( 1  0  0)  ( 1  0 -1)  ( 1  0 -1)
  ( 1  0 -1)  ( 1 -1  0)  ( 0  1  0)  ( 0  0  1)  ( 1  0  0)  ( 1 -1  0)
  ( 1 -1  0)  ( 1  0 -1)  ( 0  0  1)  ( 0  1  0)  ( 1 -1  0)  ( 1  0  0)

  ( 1  0 -1)  ( 1  0 -1)  ( 1 -1  0)  ( 1 -1  0)  ( 1 -1  0)  ( 1 -1  0)
  ( 0  1 -1)  ( 0  0 -1)  ( 1  0  0)  ( 1  0 -1)  ( 0 -1  1)  ( 0 -1  0)
  ( 0  0 -1)  ( 0  1 -1)  ( 1  0 -1)  ( 1  0  0)  ( 0 -1  0)  ( 0 -1  1)

  ( 0  1  0)  ( 0  1  0)  ( 0  1  0)  ( 0  1  0)  ( 0  1 -1)  ( 0  1 -1)
  ( 1  0  0)  ( 0  1 -1)  ( 0  0  1)  (-1  1  0)  ( 1  0 -1)  ( 0  1  0)
  ( 0  0  1)  (-1  1  0)  ( 1  0  0)  ( 0  1 -1)  ( 0  0 -1)  (-1  1  0)

  ( 0  1 -1)  ( 0  1 -1)  ( 0  0  1)  ( 0  0  1)  ( 0  0  1)  ( 0  0  1)
  ( 0  0 -1)  (-1  1  0)  ( 1  0  0)  ( 0  1  0)  ( 0 -1  1)  (-1  0  1)
  ( 1  0 -1)  ( 0  1  0)  ( 0  1  0)  ( 1  0  0)  (-1  0  1)  ( 0 -1  1)

  ( 0  0 -1)  ( 0  0 -1)  ( 0  0 -1)  ( 0  0 -1)  ( 0 -1  1)  ( 0 -1  1)
  ( 1  0 -1)  ( 0  1 -1)  ( 0 -1  0)  (-1  0  0)  ( 1 -1  0)  ( 0  0  1)
  ( 0  1 -1)  ( 1  0 -1)  (-1  0  0)  ( 0 -1  0)  ( 0 -1  0)  (-1  0  1)

  ( 0 -1  1)  ( 0 -1  1)  ( 0 -1  0)  ( 0 -1  0)  ( 0 -1  0)  ( 0 -1  0)
  ( 0 -1  0)  (-1  0  1)  ( 1 -1  0)  ( 0  0 -1)  ( 0 -1  1)  (-1  0  0)
  ( 1 -1  0)  ( 0  0  1)  ( 0 -1  1)  (-1  0  0)  ( 1 -1  0)  ( 0  0 -1)

  (-1  1  0)  (-1  1  0)  (-1  1  0)  (-1  1  0)  (-1  0  1)  (-1  0  1)
  ( 0  1  0)  ( 0  1 -1)  (-1  0  1)  (-1  0  0)  ( 0  0  1)  ( 0 -1  1)
  ( 0  1 -1)  ( 0  1  0)  (-1  0  0)  (-1  0  1)  ( 0 -1  1)  ( 0  0  1)

  (-1  0  1)  (-1  0  1)  (-1  0  0)  (-1  0  0)  (-1  0  0)  (-1  0  0)
  (-1  1  0)  (-1  0  0)  ( 0  0 -1)  ( 0 -1  0)  (-1  1  0)  (-1  0  1)
  (-1  0  0)  (-1  1  0)  ( 0 -1  0)  ( 0  0 -1)  (-1  0  1)  (-1  1  0)
Note: your k-points are not as symmetric as your crystal!

1728 k-points: 12 x 12 x 12 Monkhorst-Pack grid
182 k-points in the irreducible part of the Brillouin zone
       k-points in crystal coordinates                weights
   0:     0.04166667    0.04166667   -0.04166667          6/1728
   1:     0.04166667    0.04166667    0.04166667          2/1728
   2:     0.12500000   -0.04166667   -0.04166667          6/1728
   3:     0.12500000    0.04166667   -0.12500000         12/1728
   4:     0.12500000    0.04166667   -0.04166667         12/1728
   5:     0.12500000    0.04166667    0.04166667          6/1728
   6:     0.12500000    0.12500000   -0.12500000          6/1728
   7:     0.12500000    0.12500000   -0.04166667          6/1728
   8:     0.12500000    0.12500000    0.04166667          6/1728
   9:     0.12500000    0.12500000    0.12500000          2/1728
          ...
 181:     0.45833333    0.45833333    0.45833333          2/1728

Wave functions: Plane wave expansion
  Cutoff energy: 450.000 eV
  Number of coefficients (min, max): 357, 386
  Pulay-stress correction: 0.000000 eV/Ang^3 (de/decut=0.000000)
  Using FFTW library
  ScaLapack parameters: grid=1x1, blocksize=None
  Wavefunction extrapolation:
    Improved wavefunction reuse through dual PAW basis 

Occupation numbers: Fermi-Dirac:
  width: 0.1000  # eV
 

Eigensolver
   Davidson(niter=2) 

Densities:
  Coarse grid: 15*15*15 grid
  Fine grid: 30*30*30 grid
  Total Charge: 0.000000 

Density mixing:
  Method: separate
  Backend: pulay
  Linear mixing parameter: 0.05
  old densities: 5
  Damping of long wavelength oscillations: 50 

Hamiltonian:
  XC and Coulomb potentials evaluated on a 30*30*30 grid
  Using the PBE Exchange-Correlation functional
  External potential:
    NoExternalPotential
 

XC parameters: PBE with 2 nearest neighbor stencil

Memory estimate:
  Process memory now: 256.95 MiB
  Calculator: 21.06 MiB
    Density: 1.33 MiB
      Arrays: 0.67 MiB
      Localized functions: 0.40 MiB
      Mixer: 0.26 MiB
    Hamiltonian: 0.45 MiB
      Arrays: 0.44 MiB
      XC: 0.00 MiB
      Poisson: 0.00 MiB
      vbar: 0.01 MiB
    Wavefunctions: 19.28 MiB
      Arrays psit_nG: 9.65 MiB
      Eigensolver: 0.10 MiB
      Projections: 0.45 MiB
      Projectors: 7.89 MiB
      PW-descriptor: 1.20 MiB

Total number of cores used: 1

Number of atoms: 1
Number of atomic orbitals: 9
Number of bands in calculation: 9
Number of valence electrons: 11
Bands to converge: occupied

... initialized

Initializing position-dependent things.

Density initialized from atomic densities
Creating initial wave functions:
  9 bands from LCAO basis set

                
                
                
       Au       
                
                
                
                

Positions:
   0 Au     0.000000    0.000000    0.000000    ( 0.0000,  0.0000,  0.0000)

Unit cell:
           periodic     x           y           z      points  spacing
  1. axis:    yes    0.000000    2.061000    2.061000    15     0.1587
  2. axis:    yes    2.061000    0.000000    2.061000    15     0.1587
  3. axis:    yes    2.061000    2.061000    0.000000    15     0.1587

  Lengths:   2.914694   2.914694   2.914694
  Angles:   60.000000  60.000000  60.000000

Effective grid spacing dv^(1/3) = 0.1731

     iter     time        total  log10-change:
                         energy  eigst   dens
iter:   1 09:42:48    -3.409460
iter:   2 09:42:50    -3.358741  -2.02  -1.33
iter:   3 09:42:51    -3.176582  -1.45  -1.35
iter:   4 09:42:52    -3.138484  -2.88  -1.86
iter:   5 09:42:53    -3.138730  -2.57  -2.06
iter:   6 09:42:54    -3.133344c -3.55  -2.26
iter:   7 09:42:56    -3.133365c -5.89  -2.96
iter:   8 09:42:57    -3.133232c -4.57  -2.93
iter:   9 09:42:58    -3.133203c -6.05  -3.47
iter:  10 09:42:59    -3.133204c -7.99c -4.23c

Converged after 10 iterations.

Dipole moment: (-0.000000, 0.000000, -0.000000) |e|*Ang

Energy contributions relative to reference atoms: (reference = -516598.271109)

Kinetic:         -7.073673
Potential:       +5.650801
External:        +0.000000
XC:              -1.839243
Entropy (-ST):   -0.008611
Local:           +0.133217
--------------------------
Free energy:     -3.137510
Extrapolated:    -3.133204

Showing only first 2 kpts
 Kpt  Band  Eigenvalues  Occupancy
  0     3      5.03573    2.00000
  0     4      6.29610    2.00000
  0     5      6.41488    2.00000
  0     6     25.43375    0.00000

  1     3      4.96858    2.00000
  1     4      6.37832    2.00000
  1     5      6.37832    2.00000
  1     6     25.29599    0.00000


Fermi level: 9.53086

No gap
Writing to Assignment 4/output/Au_calculation_a=4.12.gpw (mode='')

Timing:                              incl.     excl.
-----------------------------------------------------------
Hamiltonian:                         0.066     0.000   0.0% |
 Atomic:                             0.057     0.000   0.0% |
  XC Correction:                     0.056     0.056   0.4% |
 Calculate atomic Hamiltonians:      0.000     0.000   0.0% |
 Communicate:                        0.000     0.000   0.0% |
 Initialize Hamiltonian:             0.000     0.000   0.0% |
 Poisson:                            0.000     0.000   0.0% |
 XC 3D grid:                         0.009     0.009   0.1% |
LCAO initialization:                 1.268     0.043   0.3% |
 LCAO eigensolver:                   0.224     0.005   0.0% |
  Calculate projections:             0.003     0.003   0.0% |
  DenseAtomicCorrection:             0.010     0.010   0.1% |
  Distribute overlap matrix:         0.002     0.002   0.0% |
  Orbital Layouts:                   0.026     0.026   0.2% |
  Potential matrix:                  0.143     0.143   1.0% |
  Sum over cells:                    0.034     0.034   0.3% |
 LCAO to grid:                       0.550     0.550   4.0% |-|
 Set positions (LCAO WFS):           0.451     0.078   0.6% |
  Basic WFS set positions:           0.001     0.001   0.0% |
  Basis functions set positions:     0.000     0.000   0.0% |
  P tci:                             0.117     0.117   0.8% |
  ST tci:                            0.246     0.246   1.8% ||
  mktci:                             0.009     0.009   0.1% |
PWDescriptor:                        0.015     0.015   0.1% |
SCF-cycle:                          11.964     0.446   3.2% ||
 Davidson:                          10.405     2.669  19.4% |-------|
  Apply H:                           0.997     0.896   6.5% |--|
   HMM T:                            0.101     0.101   0.7% |
  Subspace diag:                     1.860     0.103   0.8% |
   calc_h_matrix:                    1.329     0.322   2.3% ||
    Apply H:                         1.008     0.900   6.5% |--|
     HMM T:                          0.108     0.108   0.8% |
   diagonalize:                      0.275     0.275   2.0% ||
   rotate_psi:                       0.152     0.152   1.1% |
  calc. matrices:                    3.751     1.761  12.8% |----|
   Apply H:                          1.990     1.784  13.0% |----|
    HMM T:                           0.207     0.207   1.5% ||
  diagonalize:                       0.927     0.927   6.7% |--|
  rotate_psi:                        0.201     0.201   1.5% ||
 Density:                            0.409     0.000   0.0% |
  Atomic density matrices:           0.025     0.025   0.2% |
  Mix:                               0.017     0.017   0.1% |
  Multipole moments:                 0.001     0.001   0.0% |
  Pseudo density:                    0.366     0.294   2.1% ||
   Symmetrize density:               0.072     0.072   0.5% |
 Hamiltonian:                        0.622     0.002   0.0% |
  Atomic:                            0.532     0.004   0.0% |
   XC Correction:                    0.527     0.527   3.8% |-|
  Calculate atomic Hamiltonians:     0.004     0.004   0.0% |
  Communicate:                       0.000     0.000   0.0% |
  Poisson:                           0.001     0.001   0.0% |
  XC 3D grid:                        0.083     0.083   0.6% |
 Orthonormalize:                     0.082     0.011   0.1% |
  calc_s_matrix:                     0.025     0.025   0.2% |
  inverse-cholesky:                  0.011     0.011   0.1% |
  projections:                       0.028     0.028   0.2% |
  rotate_psi_s:                      0.006     0.006   0.0% |
Set symmetry:                        0.094     0.094   0.7% |
Other:                               0.345     0.345   2.5% ||
-----------------------------------------------------------
Total:                                        13.752 100.0%

Memory usage: 257.70 MiB
Date: Wed Feb 15 09:42:59 2023
