
  ___ ___ ___ _ _ _  
 |   |   |_  | | | | 
 | | | | | . | | | | 
 |__ |  _|___|_____|  22.8.0
 |___|_|             

User:   gotols@vera03-2
Date:   Tue Feb 14 16:22:28 2023
Arch:   x86_64
Pid:    74144
CWD:    /cephyr/users/gotols/Vera/TIF320-Computational-materials-and-molecular-physics-Assignments
Python: 3.10.4
gpaw:   /apps/Arch/software/GPAW/22.8.0-foss-2022a/lib/python3.10/site-packages/gpaw
_gpaw:  /apps/Arch/software/GPAW/22.8.0-foss-2022a/lib/python3.10/site-packages/
        _gpaw.cpython-310-x86_64-linux-gnu.so
ase:    /apps/Arch/software/ASE/3.22.1-foss-2022a/lib/python3.10/site-packages/ase (version 3.22.1)
numpy:  /apps/Arch/software/SciPy-bundle/2022.05-foss-2022a/lib/python3.10/site-packages/numpy (version 1.22.3)
scipy:  /apps/Arch/software/SciPy-bundle/2022.05-foss-2022a/lib/python3.10/site-packages/scipy (version 1.8.1)
libxc:  5.2.3
units:  Angstrom and eV
cores: 1
OpenMP: False
OMP_NUM_THREADS: 1

Input parameters:
  kpts: [12 12 12]
  mode: {ecut: 450.00000000000006,
         name: pw}
  xc: PBE

System changes: positions, numbers, cell, pbc, initial_charges, initial_magmoms 

Initialize ...

species:
  Au:
    name: Gold
    id: b12133f335f6ca0d89c4b1ccaa844e9a
    Z: 79.0
    valence: 11
    core: 68
    charge: 0.0
    file: /apps/Common/software/GPAW-setups/0.9.20000/Au.PBE.gz
    compensation charges: {type: gauss,
                           rc: 0.42,
                           lmax: 2}
    cutoffs: {filter: 2.33,
              core: 2.81}
    valence states:
      #              energy  rcut
      - 6s(1.00)    -5.728   1.323
      - 6p(0.00)    -0.775   1.323
      - 5d(10.00)    -6.891   1.323
      -  s          21.484   1.323
      -  p          26.436   1.323
      -  d          20.321   1.323
  
    # Using partial waves for Au as LCAO basis

Reference energy: -516598.271109  # eV

Spin-paired calculation

Convergence criteria:
 Maximum [total energy] change in last 3 cyles: 0.0005 eV / electron
 Maximum integral of absolute [dens]ity change: 0.0001 electrons / valence electron
 Maximum integral of absolute [eigenst]ate change: 4e-08 eV^2 / valence electron
 Maximum number of scf [iter]ations: 333
 (Square brackets indicate name in SCF output, whereas a 'c' in
 the SCF output indicates the quantity has converged.)

Symmetries present (total): 48

  ( 1  0  0)  ( 1  0  0)  ( 1  0  0)  ( 1  0  0)  ( 1  0 -1)  ( 1  0 -1)
  ( 1  0 -1)  ( 1 -1  0)  ( 0  1  0)  ( 0  0  1)  ( 1  0  0)  ( 1 -1  0)
  ( 1 -1  0)  ( 1  0 -1)  ( 0  0  1)  ( 0  1  0)  ( 1 -1  0)  ( 1  0  0)

  ( 1  0 -1)  ( 1  0 -1)  ( 1 -1  0)  ( 1 -1  0)  ( 1 -1  0)  ( 1 -1  0)
  ( 0  1 -1)  ( 0  0 -1)  ( 1  0  0)  ( 1  0 -1)  ( 0 -1  1)  ( 0 -1  0)
  ( 0  0 -1)  ( 0  1 -1)  ( 1  0 -1)  ( 1  0  0)  ( 0 -1  0)  ( 0 -1  1)

  ( 0  1  0)  ( 0  1  0)  ( 0  1  0)  ( 0  1  0)  ( 0  1 -1)  ( 0  1 -1)
  ( 1  0  0)  ( 0  1 -1)  ( 0  0  1)  (-1  1  0)  ( 1  0 -1)  ( 0  1  0)
  ( 0  0  1)  (-1  1  0)  ( 1  0  0)  ( 0  1 -1)  ( 0  0 -1)  (-1  1  0)

  ( 0  1 -1)  ( 0  1 -1)  ( 0  0  1)  ( 0  0  1)  ( 0  0  1)  ( 0  0  1)
  ( 0  0 -1)  (-1  1  0)  ( 1  0  0)  ( 0  1  0)  ( 0 -1  1)  (-1  0  1)
  ( 1  0 -1)  ( 0  1  0)  ( 0  1  0)  ( 1  0  0)  (-1  0  1)  ( 0 -1  1)

  ( 0  0 -1)  ( 0  0 -1)  ( 0  0 -1)  ( 0  0 -1)  ( 0 -1  1)  ( 0 -1  1)
  ( 1  0 -1)  ( 0  1 -1)  ( 0 -1  0)  (-1  0  0)  ( 1 -1  0)  ( 0  0  1)
  ( 0  1 -1)  ( 1  0 -1)  (-1  0  0)  ( 0 -1  0)  ( 0 -1  0)  (-1  0  1)

  ( 0 -1  1)  ( 0 -1  1)  ( 0 -1  0)  ( 0 -1  0)  ( 0 -1  0)  ( 0 -1  0)
  ( 0 -1  0)  (-1  0  1)  ( 1 -1  0)  ( 0  0 -1)  ( 0 -1  1)  (-1  0  0)
  ( 1 -1  0)  ( 0  0  1)  ( 0 -1  1)  (-1  0  0)  ( 1 -1  0)  ( 0  0 -1)

  (-1  1  0)  (-1  1  0)  (-1  1  0)  (-1  1  0)  (-1  0  1)  (-1  0  1)
  ( 0  1  0)  ( 0  1 -1)  (-1  0  1)  (-1  0  0)  ( 0  0  1)  ( 0 -1  1)
  ( 0  1 -1)  ( 0  1  0)  (-1  0  0)  (-1  0  1)  ( 0 -1  1)  ( 0  0  1)

  (-1  0  1)  (-1  0  1)  (-1  0  0)  (-1  0  0)  (-1  0  0)  (-1  0  0)
  (-1  1  0)  (-1  0  0)  ( 0  0 -1)  ( 0 -1  0)  (-1  1  0)  (-1  0  1)
  (-1  0  0)  (-1  1  0)  ( 0 -1  0)  ( 0  0 -1)  (-1  0  1)  (-1  1  0)
Note: your k-points are not as symmetric as your crystal!

1728 k-points: 12 x 12 x 12 Monkhorst-Pack grid
182 k-points in the irreducible part of the Brillouin zone
       k-points in crystal coordinates                weights
   0:     0.04166667    0.04166667   -0.04166667          6/1728
   1:     0.04166667    0.04166667    0.04166667          2/1728
   2:     0.12500000   -0.04166667   -0.04166667          6/1728
   3:     0.12500000    0.04166667   -0.12500000         12/1728
   4:     0.12500000    0.04166667   -0.04166667         12/1728
   5:     0.12500000    0.04166667    0.04166667          6/1728
   6:     0.12500000    0.12500000   -0.12500000          6/1728
   7:     0.12500000    0.12500000   -0.04166667          6/1728
   8:     0.12500000    0.12500000    0.04166667          6/1728
   9:     0.12500000    0.12500000    0.12500000          2/1728
          ...
 181:     0.45833333    0.45833333    0.45833333          2/1728

Wave functions: Plane wave expansion
  Cutoff energy: 450.000 eV
  Number of coefficients (min, max): 336, 367
  Pulay-stress correction: 0.000000 eV/Ang^3 (de/decut=0.000000)
  Using FFTW library
  ScaLapack parameters: grid=1x1, blocksize=None
  Wavefunction extrapolation:
    Improved wavefunction reuse through dual PAW basis 

Occupation numbers: Fermi-Dirac:
  width: 0.1000  # eV
 

Eigensolver
   Davidson(niter=2) 

Densities:
  Coarse grid: 14*14*14 grid
  Fine grid: 28*28*28 grid
  Total Charge: 0.000000 

Density mixing:
  Method: separate
  Backend: pulay
  Linear mixing parameter: 0.05
  old densities: 5
  Damping of long wavelength oscillations: 50 

Hamiltonian:
  XC and Coulomb potentials evaluated on a 28*28*28 grid
  Using the PBE Exchange-Correlation functional
  External potential:
    NoExternalPotential
 

XC parameters: PBE with 2 nearest neighbor stencil

Memory estimate:
  Process memory now: 217.37 MiB
  Calculator: 19.75 MiB
    Density: 1.13 MiB
      Arrays: 0.54 MiB
      Localized functions: 0.37 MiB
      Mixer: 0.21 MiB
    Hamiltonian: 0.36 MiB
      Arrays: 0.36 MiB
      XC: 0.00 MiB
      Poisson: 0.00 MiB
      vbar: 0.01 MiB
    Wavefunctions: 18.26 MiB
      Arrays psit_nG: 9.17 MiB
      Eigensolver: 0.09 MiB
      Projections: 0.45 MiB
      Projectors: 7.42 MiB
      PW-descriptor: 1.12 MiB

Total number of cores used: 1

Number of atoms: 1
Number of atomic orbitals: 9
Number of bands in calculation: 9
Number of valence electrons: 11
Bands to converge: occupied

... initialized

Initializing position-dependent things.

Density initialized from atomic densities
Creating initial wave functions:
  9 bands from LCAO basis set

                
                
                
       Au       
                
                
                
                

Positions:
   0 Au     0.000000    0.000000    0.000000    ( 0.0000,  0.0000,  0.0000)

Unit cell:
           periodic     x           y           z      points  spacing
  1. axis:    yes    0.000000    2.019100    2.019100    14     0.1665
  2. axis:    yes    2.019100    0.000000    2.019100    14     0.1665
  3. axis:    yes    2.019100    2.019100    0.000000    14     0.1665

  Lengths:   2.855439   2.855439   2.855439
  Angles:   60.000000  60.000000  60.000000

Effective grid spacing dv^(1/3) = 0.1817

     iter     time        total  log10-change:
                         energy  eigst   dens
iter:   1 16:22:31    -3.333309
iter:   2 16:22:32    -3.285397  -1.92  -1.34
iter:   3 16:22:33    -3.097894  -1.48  -1.36
iter:   4 16:22:34    -3.059151  -2.79  -1.86
iter:   5 16:22:35    -3.059037  -2.64  -2.06
iter:   6 16:22:35    -3.054356c -3.63  -2.30
iter:   7 16:22:36    -3.054206c -4.91  -2.93
iter:   8 16:22:37    -3.054211c -5.10  -3.13
iter:   9 16:22:38    -3.054189c -5.76  -3.53
iter:  10 16:22:39    -3.054189c -7.82c -4.14c

Converged after 10 iterations.

Dipole moment: (0.000000, -0.000000, -0.000000) |e|*Ang

Energy contributions relative to reference atoms: (reference = -516598.271109)

Kinetic:         -0.977372
Potential:       +0.403944
External:        +0.000000
XC:              -2.622331
Entropy (-ST):   -0.008755
Local:           +0.145947
--------------------------
Free energy:     -3.058566
Extrapolated:    -3.054189

Showing only first 2 kpts
 Kpt  Band  Eigenvalues  Occupancy
  0     3      5.77907    2.00000
  0     4      7.18373    2.00000
  0     5      7.31768    2.00000
  0     6     26.60067    0.00000

  1     3      5.70441    2.00000
  1     4      7.27674    2.00000
  1     5      7.27674    2.00000
  1     6     26.43266    0.00000


Fermi level: 10.61437

No gap
Writing to Assignment 4/output/Au_calculation_a=4.04.gpw (mode='')

Timing:                              incl.     excl.
-----------------------------------------------------------
Hamiltonian:                         0.058     0.000   0.0% |
 Atomic:                             0.050     0.000   0.0% |
  XC Correction:                     0.049     0.049   0.5% |
 Calculate atomic Hamiltonians:      0.000     0.000   0.0% |
 Communicate:                        0.000     0.000   0.0% |
 Initialize Hamiltonian:             0.000     0.000   0.0% |
 Poisson:                            0.000     0.000   0.0% |
 XC 3D grid:                         0.008     0.008   0.1% |
LCAO initialization:                 1.153     0.039   0.4% |
 LCAO eigensolver:                   0.189     0.004   0.0% |
  Calculate projections:             0.002     0.002   0.0% |
  DenseAtomicCorrection:             0.009     0.009   0.1% |
  Distribute overlap matrix:         0.002     0.002   0.0% |
  Orbital Layouts:                   0.023     0.023   0.2% |
  Potential matrix:                  0.121     0.121   1.1% |
  Sum over cells:                    0.029     0.029   0.3% |
 LCAO to grid:                       0.472     0.472   4.4% |-|
 Set positions (LCAO WFS):           0.453     0.076   0.7% |
  Basic WFS set positions:           0.001     0.001   0.0% |
  Basis functions set positions:     0.000     0.000   0.0% |
  P tci:                             0.119     0.119   1.1% |
  ST tci:                            0.248     0.248   2.3% ||
  mktci:                             0.009     0.009   0.1% |
PWDescriptor:                        0.043     0.043   0.4% |
SCF-cycle:                           8.948     0.431   4.0% |-|
 Davidson:                           7.608     2.030  18.8% |-------|
  Apply H:                           0.690     0.611   5.6% |-|
   HMM T:                            0.080     0.080   0.7% |
  Subspace diag:                     1.347     0.085   0.8% |
   calc_h_matrix:                    0.918     0.209   1.9% ||
    Apply H:                         0.709     0.618   5.7% |-|
     HMM T:                          0.091     0.091   0.8% |
   diagonalize:                      0.219     0.219   2.0% ||
   rotate_psi:                       0.125     0.125   1.2% |
  calc. matrices:                    2.617     1.234  11.4% |----|
   Apply H:                          1.383     1.222  11.3% |----|
    HMM T:                           0.161     0.161   1.5% ||
  diagonalize:                       0.754     0.754   7.0% |--|
  rotate_psi:                        0.170     0.170   1.6% ||
 Density:                            0.353     0.000   0.0% |
  Atomic density matrices:           0.023     0.023   0.2% |
  Mix:                               0.013     0.013   0.1% |
  Multipole moments:                 0.001     0.001   0.0% |
  Pseudo density:                    0.317     0.258   2.4% ||
   Symmetrize density:               0.059     0.059   0.5% |
 Hamiltonian:                        0.495     0.002   0.0% |
  Atomic:                            0.427     0.004   0.0% |
   XC Correction:                    0.423     0.423   3.9% |-|
  Calculate atomic Hamiltonians:     0.003     0.003   0.0% |
  Communicate:                       0.000     0.000   0.0% |
  Poisson:                           0.001     0.001   0.0% |
  XC 3D grid:                        0.062     0.062   0.6% |
 Orthonormalize:                     0.060     0.008   0.1% |
  calc_s_matrix:                     0.016     0.016   0.1% |
  inverse-cholesky:                  0.009     0.009   0.1% |
  projections:                       0.022     0.022   0.2% |
  rotate_psi_s:                      0.005     0.005   0.0% |
Set symmetry:                        0.081     0.081   0.7% |
Other:                               0.539     0.539   5.0% |-|
-----------------------------------------------------------
Total:                                        10.822 100.0%

Memory usage: 247.02 MiB
Date: Tue Feb 14 16:22:39 2023
