
  ___ ___ ___ _ _ _  
 |   |   |_  | | | | 
 | | | | | . | | | | 
 |__ |  _|___|_____|  22.8.0
 |___|_|             

User:   gotols@vera03-2
Date:   Tue Feb 14 16:24:29 2023
Arch:   x86_64
Pid:    74144
CWD:    /cephyr/users/gotols/Vera/TIF320-Computational-materials-and-molecular-physics-Assignments
Python: 3.10.4
gpaw:   /apps/Arch/software/GPAW/22.8.0-foss-2022a/lib/python3.10/site-packages/gpaw
_gpaw:  /apps/Arch/software/GPAW/22.8.0-foss-2022a/lib/python3.10/site-packages/
        _gpaw.cpython-310-x86_64-linux-gnu.so
ase:    /apps/Arch/software/ASE/3.22.1-foss-2022a/lib/python3.10/site-packages/ase (version 3.22.1)
numpy:  /apps/Arch/software/SciPy-bundle/2022.05-foss-2022a/lib/python3.10/site-packages/numpy (version 1.22.3)
scipy:  /apps/Arch/software/SciPy-bundle/2022.05-foss-2022a/lib/python3.10/site-packages/scipy (version 1.8.1)
libxc:  5.2.3
units:  Angstrom and eV
cores: 1
OpenMP: False
OMP_NUM_THREADS: 1

Input parameters:
  kpts: [12 12 12]
  mode: {ecut: 450.00000000000006,
         name: pw}
  xc: PBE

System changes: positions, numbers, cell, pbc, initial_charges, initial_magmoms 

Initialize ...

species:
  Pt:
    name: Platinum
    id: 5ed695806aff0c961dba1a84acd7f4b2
    Z: 78.0
    valence: 16
    core: 62
    charge: 0.0
    file: /apps/Common/software/GPAW-setups/0.9.20000/Pt.PBE.gz
    compensation charges: {type: gauss,
                           rc: 0.41,
                           lmax: 2}
    cutoffs: {filter: 2.26,
              core: 2.26}
    valence states:
      #              energy  rcut
      - 6s(1.00)    -5.628   1.307
      - 5p(6.00)   -56.051   1.371
      - 6p(0.00)    -0.845   1.371
      - 5d(9.00)    -6.153   1.307
      -  s          21.583   1.307
      -  d          21.058   1.307
  
    # Using partial waves for Pt as LCAO basis

Reference energy: -500375.362767  # eV

Spin-paired calculation

Convergence criteria:
 Maximum [total energy] change in last 3 cyles: 0.0005 eV / electron
 Maximum integral of absolute [dens]ity change: 0.0001 electrons / valence electron
 Maximum integral of absolute [eigenst]ate change: 4e-08 eV^2 / valence electron
 Maximum number of scf [iter]ations: 333
 (Square brackets indicate name in SCF output, whereas a 'c' in
 the SCF output indicates the quantity has converged.)

Symmetries present (total): 48

  ( 1  0  0)  ( 1  0  0)  ( 1  0  0)  ( 1  0  0)  ( 1  0 -1)  ( 1  0 -1)
  ( 1  0 -1)  ( 1 -1  0)  ( 0  1  0)  ( 0  0  1)  ( 1  0  0)  ( 1 -1  0)
  ( 1 -1  0)  ( 1  0 -1)  ( 0  0  1)  ( 0  1  0)  ( 1 -1  0)  ( 1  0  0)

  ( 1  0 -1)  ( 1  0 -1)  ( 1 -1  0)  ( 1 -1  0)  ( 1 -1  0)  ( 1 -1  0)
  ( 0  1 -1)  ( 0  0 -1)  ( 1  0  0)  ( 1  0 -1)  ( 0 -1  1)  ( 0 -1  0)
  ( 0  0 -1)  ( 0  1 -1)  ( 1  0 -1)  ( 1  0  0)  ( 0 -1  0)  ( 0 -1  1)

  ( 0  1  0)  ( 0  1  0)  ( 0  1  0)  ( 0  1  0)  ( 0  1 -1)  ( 0  1 -1)
  ( 1  0  0)  ( 0  1 -1)  ( 0  0  1)  (-1  1  0)  ( 1  0 -1)  ( 0  1  0)
  ( 0  0  1)  (-1  1  0)  ( 1  0  0)  ( 0  1 -1)  ( 0  0 -1)  (-1  1  0)

  ( 0  1 -1)  ( 0  1 -1)  ( 0  0  1)  ( 0  0  1)  ( 0  0  1)  ( 0  0  1)
  ( 0  0 -1)  (-1  1  0)  ( 1  0  0)  ( 0  1  0)  ( 0 -1  1)  (-1  0  1)
  ( 1  0 -1)  ( 0  1  0)  ( 0  1  0)  ( 1  0  0)  (-1  0  1)  ( 0 -1  1)

  ( 0  0 -1)  ( 0  0 -1)  ( 0  0 -1)  ( 0  0 -1)  ( 0 -1  1)  ( 0 -1  1)
  ( 1  0 -1)  ( 0  1 -1)  ( 0 -1  0)  (-1  0  0)  ( 1 -1  0)  ( 0  0  1)
  ( 0  1 -1)  ( 1  0 -1)  (-1  0  0)  ( 0 -1  0)  ( 0 -1  0)  (-1  0  1)

  ( 0 -1  1)  ( 0 -1  1)  ( 0 -1  0)  ( 0 -1  0)  ( 0 -1  0)  ( 0 -1  0)
  ( 0 -1  0)  (-1  0  1)  ( 1 -1  0)  ( 0  0 -1)  ( 0 -1  1)  (-1  0  0)
  ( 1 -1  0)  ( 0  0  1)  ( 0 -1  1)  (-1  0  0)  ( 1 -1  0)  ( 0  0 -1)

  (-1  1  0)  (-1  1  0)  (-1  1  0)  (-1  1  0)  (-1  0  1)  (-1  0  1)
  ( 0  1  0)  ( 0  1 -1)  (-1  0  1)  (-1  0  0)  ( 0  0  1)  ( 0 -1  1)
  ( 0  1 -1)  ( 0  1  0)  (-1  0  0)  (-1  0  1)  ( 0 -1  1)  ( 0  0  1)

  (-1  0  1)  (-1  0  1)  (-1  0  0)  (-1  0  0)  (-1  0  0)  (-1  0  0)
  (-1  1  0)  (-1  0  0)  ( 0  0 -1)  ( 0 -1  0)  (-1  1  0)  (-1  0  1)
  (-1  0  0)  (-1  1  0)  ( 0 -1  0)  ( 0  0 -1)  (-1  0  1)  (-1  1  0)
Note: your k-points are not as symmetric as your crystal!

1728 k-points: 12 x 12 x 12 Monkhorst-Pack grid
182 k-points in the irreducible part of the Brillouin zone
       k-points in crystal coordinates                weights
   0:     0.04166667    0.04166667   -0.04166667          6/1728
   1:     0.04166667    0.04166667    0.04166667          2/1728
   2:     0.12500000   -0.04166667   -0.04166667          6/1728
   3:     0.12500000    0.04166667   -0.12500000         12/1728
   4:     0.12500000    0.04166667   -0.04166667         12/1728
   5:     0.12500000    0.04166667    0.04166667          6/1728
   6:     0.12500000    0.12500000   -0.12500000          6/1728
   7:     0.12500000    0.12500000   -0.04166667          6/1728
   8:     0.12500000    0.12500000    0.04166667          6/1728
   9:     0.12500000    0.12500000    0.12500000          2/1728
          ...
 181:     0.45833333    0.45833333    0.45833333          2/1728

Wave functions: Plane wave expansion
  Cutoff energy: 450.000 eV
  Number of coefficients (min, max): 311, 331
  Pulay-stress correction: 0.000000 eV/Ang^3 (de/decut=0.000000)
  Using FFTW library
  ScaLapack parameters: grid=1x1, blocksize=None
  Wavefunction extrapolation:
    Improved wavefunction reuse through dual PAW basis 

Occupation numbers: Fermi-Dirac:
  width: 0.1000  # eV
 

Eigensolver
   Davidson(niter=2) 

Densities:
  Coarse grid: 14*14*14 grid
  Fine grid: 28*28*28 grid
  Total Charge: 0.000000 

Density mixing:
  Method: separate
  Backend: pulay
  Linear mixing parameter: 0.05
  old densities: 5
  Damping of long wavelength oscillations: 50 

Hamiltonian:
  XC and Coulomb potentials evaluated on a 28*28*28 grid
  Using the PBE Exchange-Correlation functional
  External potential:
    NoExternalPotential
 

XC parameters: PBE with 2 nearest neighbor stencil

Memory estimate:
  Process memory now: 254.85 MiB
  Calculator: 20.88 MiB
    Density: 1.09 MiB
      Arrays: 0.54 MiB
      Localized functions: 0.34 MiB
      Mixer: 0.21 MiB
    Hamiltonian: 0.36 MiB
      Arrays: 0.36 MiB
      XC: 0.00 MiB
      Poisson: 0.00 MiB
      vbar: 0.01 MiB
    Wavefunctions: 19.43 MiB
      Arrays psit_nG: 11.03 MiB
      Eigensolver: 0.11 MiB
      Projections: 0.60 MiB
      Projectors: 6.66 MiB
      PW-descriptor: 1.02 MiB

Total number of cores used: 1

Number of atoms: 1
Number of atomic orbitals: 12
Number of bands in calculation: 12
Number of valence electrons: 16
Bands to converge: occupied

... initialized

Initializing position-dependent things.

Density initialized from atomic densities
Creating initial wave functions:
  12 bands from LCAO basis set

                
                
                
       Pt       
                
                
                
                

Positions:
   0 Pt     0.000000    0.000000    0.000000    ( 0.0000,  0.0000,  0.0000)

Unit cell:
           periodic     x           y           z      points  spacing
  1. axis:    yes    0.000000    1.946800    1.946800    14     0.1606
  2. axis:    yes    1.946800    0.000000    1.946800    14     0.1606
  3. axis:    yes    1.946800    1.946800    0.000000    14     0.1606

  Lengths:   2.753191   2.753191   2.753191
  Angles:   60.000000  60.000000  60.000000

Effective grid spacing dv^(1/3) = 0.1752

     iter     time        total  log10-change:
                         energy  eigst   dens
iter:   1 16:24:33    -6.801895
iter:   2 16:24:34    -6.739281  -1.53  -1.46
iter:   3 16:24:35    -6.496650  -1.33  -1.48
iter:   4 16:24:36    -6.395722  -2.44  -1.80
iter:   5 16:24:37    -6.395432  -2.60  -2.20
iter:   6 16:24:38    -6.393231c -3.98  -2.57
iter:   7 16:24:39    -6.392045c -4.39  -2.85
iter:   8 16:24:40    -6.392325c -4.21  -3.16
iter:   9 16:24:41    -6.392328c -5.96  -4.08c
iter:  10 16:24:42    -6.392325c -6.60  -4.28c
iter:  11 16:24:44    -6.392328c -6.23  -3.91
iter:  12 16:24:45    -6.392328c -7.53c -5.00c

Converged after 12 iterations.

Dipole moment: (0.000000, 0.000000, 0.000000) |e|*Ang

Energy contributions relative to reference atoms: (reference = -500375.362767)

Kinetic:         -0.876979
Potential:       -0.240408
External:        +0.000000
XC:              -4.700161
Entropy (-ST):   -0.052786
Local:           -0.548387
--------------------------
Free energy:     -6.418721
Extrapolated:    -6.392328

Showing only first 2 kpts
 Kpt  Band  Eigenvalues  Occupancy
  0     6      8.79653    2.00000
  0     7     10.72530    2.00000
  0     8     10.91770    2.00000
  0     9     28.04057    0.00000

  1     6      8.70128    2.00000
  1     7     10.86356    2.00000
  1     8     10.86356    2.00000
  1     9     27.74801    0.00000


Fermi level: 12.57116

No gap
Writing to Assignment 4/output/Pt_calculation_a=3.89.gpw (mode='')

Timing:                              incl.     excl.
-----------------------------------------------------------
Hamiltonian:                         0.055     0.000   0.0% |
 Atomic:                             0.047     0.000   0.0% |
  XC Correction:                     0.047     0.047   0.3% |
 Calculate atomic Hamiltonians:      0.000     0.000   0.0% |
 Communicate:                        0.000     0.000   0.0% |
 Initialize Hamiltonian:             0.000     0.000   0.0% |
 Poisson:                            0.000     0.000   0.0% |
 XC 3D grid:                         0.007     0.007   0.0% |
LCAO initialization:                 2.652     0.060   0.4% |
 LCAO eigensolver:                   0.344     0.004   0.0% |
  Calculate projections:             0.002     0.002   0.0% |
  DenseAtomicCorrection:             0.009     0.009   0.1% |
  Distribute overlap matrix:         0.002     0.002   0.0% |
  Orbital Layouts:                   0.028     0.028   0.2% |
  Potential matrix:                  0.266     0.266   1.7% ||
  Sum over cells:                    0.032     0.032   0.2% |
 LCAO to grid:                       1.720     1.720  10.9% |---|
 Set positions (LCAO WFS):           0.528     0.077   0.5% |
  Basic WFS set positions:           0.001     0.001   0.0% |
  Basis functions set positions:     0.000     0.000   0.0% |
  P tci:                             0.122     0.122   0.8% |
  ST tci:                            0.318     0.318   2.0% ||
  mktci:                             0.009     0.009   0.1% |
PWDescriptor:                        0.013     0.013   0.1% |
SCF-cycle:                          12.640     0.717   4.6% |-|
 Davidson:                          10.769     2.645  16.8% |------|
  Apply H:                           1.068     0.947   6.0% |-|
   HMM T:                            0.121     0.121   0.8% |
  Subspace diag:                     1.891     0.104   0.7% |
   calc_h_matrix:                    1.332     0.252   1.6% ||
    Apply H:                         1.080     0.951   6.0% |-|
     HMM T:                          0.128     0.128   0.8% |
   diagonalize:                      0.301     0.301   1.9% ||
   rotate_psi:                       0.156     0.156   1.0% |
  calc. matrices:                    3.626     1.498   9.5% |---|
   Apply H:                          2.128     1.888  12.0% |----|
    HMM T:                           0.240     0.240   1.5% ||
  diagonalize:                       1.311     1.311   8.3% |--|
  rotate_psi:                        0.227     0.227   1.4% ||
 Density:                            0.497     0.000   0.0% |
  Atomic density matrices:           0.029     0.029   0.2% |
  Mix:                               0.014     0.014   0.1% |
  Multipole moments:                 0.001     0.001   0.0% |
  Pseudo density:                    0.453     0.382   2.4% ||
   Symmetrize density:               0.071     0.071   0.5% |
 Hamiltonian:                        0.598     0.002   0.0% |
  Atomic:                            0.517     0.004   0.0% |
   XC Correction:                    0.513     0.513   3.3% ||
  Calculate atomic Hamiltonians:     0.004     0.004   0.0% |
  Communicate:                       0.000     0.000   0.0% |
  Poisson:                           0.001     0.001   0.0% |
  XC 3D grid:                        0.073     0.073   0.5% |
 Orthonormalize:                     0.060     0.008   0.1% |
  calc_s_matrix:                     0.015     0.015   0.1% |
  inverse-cholesky:                  0.009     0.009   0.1% |
  projections:                       0.022     0.022   0.1% |
  rotate_psi_s:                      0.006     0.006   0.0% |
Set symmetry:                        0.083     0.083   0.5% |
Other:                               0.302     0.302   1.9% ||
-----------------------------------------------------------
Total:                                        15.745 100.0%

Memory usage: 254.96 MiB
Date: Tue Feb 14 16:24:45 2023
