
  ___ ___ ___ _ _ _  
 |   |   |_  | | | | 
 | | | | | . | | | | 
 |__ |  _|___|_____|  22.8.0
 |___|_|             

User:   gotols@vera03-2
Date:   Tue Feb 14 15:41:47 2023
Arch:   x86_64
Pid:    71373
CWD:    /cephyr/users/gotols/Vera/TIF320-Computational-materials-and-molecular-physics-Assignments
Python: 3.10.4
gpaw:   /apps/Arch/software/GPAW/22.8.0-foss-2022a/lib/python3.10/site-packages/gpaw
_gpaw:  /apps/Arch/software/GPAW/22.8.0-foss-2022a/lib/python3.10/site-packages/
        _gpaw.cpython-310-x86_64-linux-gnu.so
ase:    /apps/Arch/software/ASE/3.22.1-foss-2022a/lib/python3.10/site-packages/ase (version 3.22.1)
numpy:  /apps/Arch/software/SciPy-bundle/2022.05-foss-2022a/lib/python3.10/site-packages/numpy (version 1.22.3)
scipy:  /apps/Arch/software/SciPy-bundle/2022.05-foss-2022a/lib/python3.10/site-packages/scipy (version 1.8.1)
libxc:  5.2.3
units:  Angstrom and eV
cores: 1
OpenMP: False
OMP_NUM_THREADS: 1

Input parameters:
  kpts: [12 12 12]
  mode: {ecut: 450.00000000000006,
         name: pw}
  xc: PBE

System changes: positions, numbers, cell, pbc, initial_charges, initial_magmoms 

Initialize ...

species:
  Pt:
    name: Platinum
    id: 5ed695806aff0c961dba1a84acd7f4b2
    Z: 78.0
    valence: 16
    core: 62
    charge: 0.0
    file: /apps/Common/software/GPAW-setups/0.9.20000/Pt.PBE.gz
    compensation charges: {type: gauss,
                           rc: 0.41,
                           lmax: 2}
    cutoffs: {filter: 2.26,
              core: 2.26}
    valence states:
      #              energy  rcut
      - 6s(1.00)    -5.628   1.307
      - 5p(6.00)   -56.051   1.371
      - 6p(0.00)    -0.845   1.371
      - 5d(9.00)    -6.153   1.307
      -  s          21.583   1.307
      -  d          21.058   1.307
  
    # Using partial waves for Pt as LCAO basis

Reference energy: -500375.362767  # eV

Spin-paired calculation

Convergence criteria:
 Maximum [total energy] change in last 3 cyles: 0.0005 eV / electron
 Maximum integral of absolute [dens]ity change: 0.0001 electrons / valence electron
 Maximum integral of absolute [eigenst]ate change: 4e-08 eV^2 / valence electron
 Maximum number of scf [iter]ations: 333
 (Square brackets indicate name in SCF output, whereas a 'c' in
 the SCF output indicates the quantity has converged.)

Symmetries present (total): 48

  ( 1  0  0)  ( 1  0  0)  ( 1  0  0)  ( 1  0  0)  ( 1  0 -1)  ( 1  0 -1)
  ( 1  0 -1)  ( 1 -1  0)  ( 0  1  0)  ( 0  0  1)  ( 1  0  0)  ( 1 -1  0)
  ( 1 -1  0)  ( 1  0 -1)  ( 0  0  1)  ( 0  1  0)  ( 1 -1  0)  ( 1  0  0)

  ( 1  0 -1)  ( 1  0 -1)  ( 1 -1  0)  ( 1 -1  0)  ( 1 -1  0)  ( 1 -1  0)
  ( 0  1 -1)  ( 0  0 -1)  ( 1  0  0)  ( 1  0 -1)  ( 0 -1  1)  ( 0 -1  0)
  ( 0  0 -1)  ( 0  1 -1)  ( 1  0 -1)  ( 1  0  0)  ( 0 -1  0)  ( 0 -1  1)

  ( 0  1  0)  ( 0  1  0)  ( 0  1  0)  ( 0  1  0)  ( 0  1 -1)  ( 0  1 -1)
  ( 1  0  0)  ( 0  1 -1)  ( 0  0  1)  (-1  1  0)  ( 1  0 -1)  ( 0  1  0)
  ( 0  0  1)  (-1  1  0)  ( 1  0  0)  ( 0  1 -1)  ( 0  0 -1)  (-1  1  0)

  ( 0  1 -1)  ( 0  1 -1)  ( 0  0  1)  ( 0  0  1)  ( 0  0  1)  ( 0  0  1)
  ( 0  0 -1)  (-1  1  0)  ( 1  0  0)  ( 0  1  0)  ( 0 -1  1)  (-1  0  1)
  ( 1  0 -1)  ( 0  1  0)  ( 0  1  0)  ( 1  0  0)  (-1  0  1)  ( 0 -1  1)

  ( 0  0 -1)  ( 0  0 -1)  ( 0  0 -1)  ( 0  0 -1)  ( 0 -1  1)  ( 0 -1  1)
  ( 1  0 -1)  ( 0  1 -1)  ( 0 -1  0)  (-1  0  0)  ( 1 -1  0)  ( 0  0  1)
  ( 0  1 -1)  ( 1  0 -1)  (-1  0  0)  ( 0 -1  0)  ( 0 -1  0)  (-1  0  1)

  ( 0 -1  1)  ( 0 -1  1)  ( 0 -1  0)  ( 0 -1  0)  ( 0 -1  0)  ( 0 -1  0)
  ( 0 -1  0)  (-1  0  1)  ( 1 -1  0)  ( 0  0 -1)  ( 0 -1  1)  (-1  0  0)
  ( 1 -1  0)  ( 0  0  1)  ( 0 -1  1)  (-1  0  0)  ( 1 -1  0)  ( 0  0 -1)

  (-1  1  0)  (-1  1  0)  (-1  1  0)  (-1  1  0)  (-1  0  1)  (-1  0  1)
  ( 0  1  0)  ( 0  1 -1)  (-1  0  1)  (-1  0  0)  ( 0  0  1)  ( 0 -1  1)
  ( 0  1 -1)  ( 0  1  0)  (-1  0  0)  (-1  0  1)  ( 0 -1  1)  ( 0  0  1)

  (-1  0  1)  (-1  0  1)  (-1  0  0)  (-1  0  0)  (-1  0  0)  (-1  0  0)
  (-1  1  0)  (-1  0  0)  ( 0  0 -1)  ( 0 -1  0)  (-1  1  0)  (-1  0  1)
  (-1  0  0)  (-1  1  0)  ( 0 -1  0)  ( 0  0 -1)  (-1  0  1)  (-1  1  0)
Note: your k-points are not as symmetric as your crystal!

1728 k-points: 12 x 12 x 12 Monkhorst-Pack grid
182 k-points in the irreducible part of the Brillouin zone
       k-points in crystal coordinates                weights
   0:     0.04166667    0.04166667   -0.04166667          6/1728
   1:     0.04166667    0.04166667    0.04166667          2/1728
   2:     0.12500000   -0.04166667   -0.04166667          6/1728
   3:     0.12500000    0.04166667   -0.12500000         12/1728
   4:     0.12500000    0.04166667   -0.04166667         12/1728
   5:     0.12500000    0.04166667    0.04166667          6/1728
   6:     0.12500000    0.12500000   -0.12500000          6/1728
   7:     0.12500000    0.12500000   -0.04166667          6/1728
   8:     0.12500000    0.12500000    0.04166667          6/1728
   9:     0.12500000    0.12500000    0.12500000          2/1728
          ...
 181:     0.45833333    0.45833333    0.45833333          2/1728

Wave functions: Plane wave expansion
  Cutoff energy: 450.000 eV
  Number of coefficients (min, max): 288, 307
  Pulay-stress correction: 0.000000 eV/Ang^3 (de/decut=0.000000)
  Using FFTW library
  ScaLapack parameters: grid=1x1, blocksize=None
  Wavefunction extrapolation:
    Improved wavefunction reuse through dual PAW basis 

Occupation numbers: Fermi-Dirac:
  width: 0.1000  # eV
 

Eigensolver
   Davidson(niter=2) 

Densities:
  Coarse grid: 14*14*14 grid
  Fine grid: 28*28*28 grid
  Total Charge: 0.000000 

Density mixing:
  Method: separate
  Backend: pulay
  Linear mixing parameter: 0.05
  old densities: 5
  Damping of long wavelength oscillations: 50 

Hamiltonian:
  XC and Coulomb potentials evaluated on a 28*28*28 grid
  Using the PBE Exchange-Correlation functional
  External potential:
    NoExternalPotential
 

XC parameters: PBE with 2 nearest neighbor stencil

Memory estimate:
  Process memory now: 261.88 MiB
  Calculator: 19.52 MiB
    Density: 1.07 MiB
      Arrays: 0.54 MiB
      Localized functions: 0.31 MiB
      Mixer: 0.21 MiB
    Hamiltonian: 0.36 MiB
      Arrays: 0.36 MiB
      XC: 0.00 MiB
      Poisson: 0.00 MiB
      vbar: 0.01 MiB
    Wavefunctions: 18.09 MiB
      Arrays psit_nG: 10.23 MiB
      Eigensolver: 0.10 MiB
      Projections: 0.60 MiB
      Projectors: 6.20 MiB
      PW-descriptor: 0.96 MiB

Total number of cores used: 1

Number of atoms: 1
Number of atomic orbitals: 12
Number of bands in calculation: 12
Number of valence electrons: 16
Bands to converge: occupied

... initialized

Initializing position-dependent things.

Density initialized from atomic densities
Creating initial wave functions:
  12 bands from LCAO basis set

                
                
                
       Pt       
                
                
                
                

Positions:
   0 Pt     0.000000    0.000000    0.000000    ( 0.0000,  0.0000,  0.0000)

Unit cell:
           periodic     x           y           z      points  spacing
  1. axis:    yes    0.000000    1.900000    1.900000    14     0.1567
  2. axis:    yes    1.900000    0.000000    1.900000    14     0.1567
  3. axis:    yes    1.900000    1.900000    0.000000    14     0.1567

  Lengths:   2.687006   2.687006   2.687006
  Angles:   60.000000  60.000000  60.000000

Effective grid spacing dv^(1/3) = 0.1710

     iter     time        total  log10-change:
                         energy  eigst   dens
iter:   1 15:41:51    -6.605379
iter:   2 15:41:52    -6.547193  -1.53  -1.47
iter:   3 15:41:53    -6.299423  -1.38  -1.49
iter:   4 15:41:55    -6.203801  -2.43  -1.82
iter:   5 15:41:56    -6.203480  -2.52  -2.22
iter:   6 15:41:57    -6.199558c -4.02  -2.50
iter:   7 15:41:58    -6.198172c -4.26  -2.84
iter:   8 15:41:59    -6.198550c -4.13  -3.12
iter:   9 15:42:00    -6.198552c -5.86  -4.13c
iter:  10 15:42:01    -6.198548c -6.72  -4.35c
iter:  11 15:42:02    -6.198551c -6.43  -3.95
iter:  12 15:42:03    -6.198551c -7.02  -4.47c
iter:  13 15:42:04    -6.198551c -8.30c -5.27c

Converged after 13 iterations.

Dipole moment: (0.000000, 0.000000, -0.000000) |e|*Ang

Energy contributions relative to reference atoms: (reference = -500375.362767)

Kinetic:        +10.158451
Potential:       -9.640415
External:        +0.000000
XC:              -6.114549
Entropy (-ST):   -0.047567
Local:           -0.578255
--------------------------
Free energy:     -6.222335
Extrapolated:    -6.198551

Showing only first 2 kpts
 Kpt  Band  Eigenvalues  Occupancy
  0     6      9.87596    2.00000
  0     7     12.04430    2.00000
  0     8     12.26541    2.00000
  0     9     29.47545    0.00000

  1     6      9.76986    2.00000
  1     7     12.20474    2.00000
  1     8     12.20474    2.00000
  1     9     29.14060    0.00000


Fermi level: 14.12640

No gap
Writing to Assignment 4/output/Pt_calculation_a=3.8.gpw (mode='')

Timing:                              incl.     excl.
-----------------------------------------------------------
Hamiltonian:                         0.057     0.000   0.0% |
 Atomic:                             0.049     0.000   0.0% |
  XC Correction:                     0.049     0.049   0.3% |
 Calculate atomic Hamiltonians:      0.000     0.000   0.0% |
 Communicate:                        0.000     0.000   0.0% |
 Initialize Hamiltonian:             0.000     0.000   0.0% |
 Poisson:                            0.000     0.000   0.0% |
 XC 3D grid:                         0.007     0.007   0.0% |
LCAO initialization:                 2.772     0.058   0.3% |
 LCAO eigensolver:                   0.379     0.004   0.0% |
  Calculate projections:             0.002     0.002   0.0% |
  DenseAtomicCorrection:             0.009     0.009   0.1% |
  Distribute overlap matrix:         0.002     0.002   0.0% |
  Orbital Layouts:                   0.028     0.028   0.2% |
  Potential matrix:                  0.301     0.301   1.8% ||
  Sum over cells:                    0.032     0.032   0.2% |
 LCAO to grid:                       1.751     1.751  10.4% |---|
 Set positions (LCAO WFS):           0.584     0.085   0.5% |
  Basic WFS set positions:           0.001     0.001   0.0% |
  Basis functions set positions:     0.000     0.000   0.0% |
  P tci:                             0.143     0.143   0.9% |
  ST tci:                            0.345     0.345   2.1% ||
  mktci:                             0.009     0.009   0.1% |
PWDescriptor:                        0.013     0.013   0.1% |
SCF-cycle:                          13.567     0.742   4.4% |-|
 Davidson:                          11.547     2.831  16.9% |------|
  Apply H:                           1.148     1.018   6.1% |-|
   HMM T:                            0.131     0.131   0.8% |
  Subspace diag:                     2.026     0.113   0.7% |
   calc_h_matrix:                    1.422     0.268   1.6% ||
    Apply H:                         1.154     1.016   6.0% |-|
     HMM T:                          0.138     0.138   0.8% |
   diagonalize:                      0.324     0.324   1.9% ||
   rotate_psi:                       0.167     0.167   1.0% |
  calc. matrices:                    3.882     1.598   9.5% |---|
   Apply H:                          2.284     2.023  12.0% |----|
    HMM T:                           0.261     0.261   1.6% ||
  diagonalize:                       1.412     1.412   8.4% |--|
  rotate_psi:                        0.248     0.248   1.5% ||
 Density:                            0.536     0.000   0.0% |
  Atomic density matrices:           0.032     0.032   0.2% |
  Mix:                               0.015     0.015   0.1% |
  Multipole moments:                 0.001     0.001   0.0% |
  Pseudo density:                    0.489     0.411   2.4% ||
   Symmetrize density:               0.078     0.078   0.5% |
 Hamiltonian:                        0.684     0.002   0.0% |
  Atomic:                            0.594     0.005   0.0% |
   XC Correction:                    0.589     0.589   3.5% ||
  Calculate atomic Hamiltonians:     0.004     0.004   0.0% |
  Communicate:                       0.000     0.000   0.0% |
  Poisson:                           0.001     0.001   0.0% |
  XC 3D grid:                        0.083     0.083   0.5% |
 Orthonormalize:                     0.058     0.008   0.0% |
  calc_s_matrix:                     0.016     0.016   0.1% |
  inverse-cholesky:                  0.009     0.009   0.1% |
  projections:                       0.019     0.019   0.1% |
  rotate_psi_s:                      0.006     0.006   0.0% |
Set symmetry:                        0.084     0.084   0.5% |
Other:                               0.299     0.299   1.8% ||
-----------------------------------------------------------
Total:                                        16.793 100.0%

Memory usage: 261.88 MiB
Date: Tue Feb 14 15:42:04 2023
