
  ___ ___ ___ _ _ _  
 |   |   |_  | | | | 
 | | | | | . | | | | 
 |__ |  _|___|_____|  22.8.0
 |___|_|             

User:   gotols@vera33-2
Date:   Wed Feb 15 09:45:22 2023
Arch:   x86_64
Pid:    3133821
CWD:    /cephyr/users/gotols/Vera/TIF320-Computational-materials-and-molecular-physics-Assignments
Python: 3.10.4
gpaw:   /apps/Arch/software/GPAW/22.8.0-foss-2022a/lib/python3.10/site-packages/gpaw
_gpaw:  /apps/Arch/software/GPAW/22.8.0-foss-2022a/lib/python3.10/site-packages/
        _gpaw.cpython-310-x86_64-linux-gnu.so
ase:    /apps/Arch/software/ASE/3.22.1-foss-2022a/lib/python3.10/site-packages/ase (version 3.22.1)
numpy:  /apps/Arch/software/SciPy-bundle/2022.05-foss-2022a/lib/python3.10/site-packages/numpy (version 1.22.3)
scipy:  /apps/Arch/software/SciPy-bundle/2022.05-foss-2022a/lib/python3.10/site-packages/scipy (version 1.8.1)
libxc:  5.2.3
units:  Angstrom and eV
cores: 1
OpenMP: False
OMP_NUM_THREADS: 1

Input parameters:
  kpts: [12 12 12]
  mode: {ecut: 450.00000000000006,
         name: pw}
  xc: PBE

System changes: positions, numbers, cell, pbc, initial_charges, initial_magmoms 

Initialize ...

species:
  Pt:
    name: Platinum
    id: 5ed695806aff0c961dba1a84acd7f4b2
    Z: 78.0
    valence: 16
    core: 62
    charge: 0.0
    file: /apps/Common/software/GPAW-setups/0.9.20000/Pt.PBE.gz
    compensation charges: {type: gauss,
                           rc: 0.41,
                           lmax: 2}
    cutoffs: {filter: 2.26,
              core: 2.26}
    valence states:
      #              energy  rcut
      - 6s(1.00)    -5.628   1.307
      - 5p(6.00)   -56.051   1.371
      - 6p(0.00)    -0.845   1.371
      - 5d(9.00)    -6.153   1.307
      -  s          21.583   1.307
      -  d          21.058   1.307
  
    # Using partial waves for Pt as LCAO basis

Reference energy: -500375.362767  # eV

Spin-paired calculation

Convergence criteria:
 Maximum [total energy] change in last 3 cyles: 0.0005 eV / electron
 Maximum integral of absolute [dens]ity change: 0.0001 electrons / valence electron
 Maximum integral of absolute [eigenst]ate change: 4e-08 eV^2 / valence electron
 Maximum number of scf [iter]ations: 333
 (Square brackets indicate name in SCF output, whereas a 'c' in
 the SCF output indicates the quantity has converged.)

Symmetries present (total): 48

  ( 1  0  0)  ( 1  0  0)  ( 1  0  0)  ( 1  0  0)  ( 1  0 -1)  ( 1  0 -1)
  ( 1  0 -1)  ( 1 -1  0)  ( 0  1  0)  ( 0  0  1)  ( 1  0  0)  ( 1 -1  0)
  ( 1 -1  0)  ( 1  0 -1)  ( 0  0  1)  ( 0  1  0)  ( 1 -1  0)  ( 1  0  0)

  ( 1  0 -1)  ( 1  0 -1)  ( 1 -1  0)  ( 1 -1  0)  ( 1 -1  0)  ( 1 -1  0)
  ( 0  1 -1)  ( 0  0 -1)  ( 1  0  0)  ( 1  0 -1)  ( 0 -1  1)  ( 0 -1  0)
  ( 0  0 -1)  ( 0  1 -1)  ( 1  0 -1)  ( 1  0  0)  ( 0 -1  0)  ( 0 -1  1)

  ( 0  1  0)  ( 0  1  0)  ( 0  1  0)  ( 0  1  0)  ( 0  1 -1)  ( 0  1 -1)
  ( 1  0  0)  ( 0  1 -1)  ( 0  0  1)  (-1  1  0)  ( 1  0 -1)  ( 0  1  0)
  ( 0  0  1)  (-1  1  0)  ( 1  0  0)  ( 0  1 -1)  ( 0  0 -1)  (-1  1  0)

  ( 0  1 -1)  ( 0  1 -1)  ( 0  0  1)  ( 0  0  1)  ( 0  0  1)  ( 0  0  1)
  ( 0  0 -1)  (-1  1  0)  ( 1  0  0)  ( 0  1  0)  ( 0 -1  1)  (-1  0  1)
  ( 1  0 -1)  ( 0  1  0)  ( 0  1  0)  ( 1  0  0)  (-1  0  1)  ( 0 -1  1)

  ( 0  0 -1)  ( 0  0 -1)  ( 0  0 -1)  ( 0  0 -1)  ( 0 -1  1)  ( 0 -1  1)
  ( 1  0 -1)  ( 0  1 -1)  ( 0 -1  0)  (-1  0  0)  ( 1 -1  0)  ( 0  0  1)
  ( 0  1 -1)  ( 1  0 -1)  (-1  0  0)  ( 0 -1  0)  ( 0 -1  0)  (-1  0  1)

  ( 0 -1  1)  ( 0 -1  1)  ( 0 -1  0)  ( 0 -1  0)  ( 0 -1  0)  ( 0 -1  0)
  ( 0 -1  0)  (-1  0  1)  ( 1 -1  0)  ( 0  0 -1)  ( 0 -1  1)  (-1  0  0)
  ( 1 -1  0)  ( 0  0  1)  ( 0 -1  1)  (-1  0  0)  ( 1 -1  0)  ( 0  0 -1)

  (-1  1  0)  (-1  1  0)  (-1  1  0)  (-1  1  0)  (-1  0  1)  (-1  0  1)
  ( 0  1  0)  ( 0  1 -1)  (-1  0  1)  (-1  0  0)  ( 0  0  1)  ( 0 -1  1)
  ( 0  1 -1)  ( 0  1  0)  (-1  0  0)  (-1  0  1)  ( 0 -1  1)  ( 0  0  1)

  (-1  0  1)  (-1  0  1)  (-1  0  0)  (-1  0  0)  (-1  0  0)  (-1  0  0)
  (-1  1  0)  (-1  0  0)  ( 0  0 -1)  ( 0 -1  0)  (-1  1  0)  (-1  0  1)
  (-1  0  0)  (-1  1  0)  ( 0 -1  0)  ( 0  0 -1)  (-1  0  1)  (-1  1  0)
Note: your k-points are not as symmetric as your crystal!

1728 k-points: 12 x 12 x 12 Monkhorst-Pack grid
182 k-points in the irreducible part of the Brillouin zone
       k-points in crystal coordinates                weights
   0:     0.04166667    0.04166667   -0.04166667          6/1728
   1:     0.04166667    0.04166667    0.04166667          2/1728
   2:     0.12500000   -0.04166667   -0.04166667          6/1728
   3:     0.12500000    0.04166667   -0.12500000         12/1728
   4:     0.12500000    0.04166667   -0.04166667         12/1728
   5:     0.12500000    0.04166667    0.04166667          6/1728
   6:     0.12500000    0.12500000   -0.12500000          6/1728
   7:     0.12500000    0.12500000   -0.04166667          6/1728
   8:     0.12500000    0.12500000    0.04166667          6/1728
   9:     0.12500000    0.12500000    0.12500000          2/1728
          ...
 181:     0.45833333    0.45833333    0.45833333          2/1728

Wave functions: Plane wave expansion
  Cutoff energy: 450.000 eV
  Number of coefficients (min, max): 320, 335
  Pulay-stress correction: 0.000000 eV/Ang^3 (de/decut=0.000000)
  Using FFTW library
  ScaLapack parameters: grid=1x1, blocksize=None
  Wavefunction extrapolation:
    Improved wavefunction reuse through dual PAW basis 

Occupation numbers: Fermi-Dirac:
  width: 0.1000  # eV
 

Eigensolver
   Davidson(niter=2) 

Densities:
  Coarse grid: 14*14*14 grid
  Fine grid: 28*28*28 grid
  Total Charge: 0.000000 

Density mixing:
  Method: separate
  Backend: pulay
  Linear mixing parameter: 0.05
  old densities: 5
  Damping of long wavelength oscillations: 50 

Hamiltonian:
  XC and Coulomb potentials evaluated on a 28*28*28 grid
  Using the PBE Exchange-Correlation functional
  External potential:
    NoExternalPotential
 

XC parameters: PBE with 2 nearest neighbor stencil

Memory estimate:
  Process memory now: 263.59 MiB
  Calculator: 21.20 MiB
    Density: 1.10 MiB
      Arrays: 0.54 MiB
      Localized functions: 0.35 MiB
      Mixer: 0.21 MiB
    Hamiltonian: 0.36 MiB
      Arrays: 0.36 MiB
      XC: 0.00 MiB
      Poisson: 0.00 MiB
      vbar: 0.01 MiB
    Wavefunctions: 19.74 MiB
      Arrays psit_nG: 11.16 MiB
      Eigensolver: 0.11 MiB
      Projections: 0.60 MiB
      Projectors: 6.83 MiB
      PW-descriptor: 1.04 MiB

Total number of cores used: 1

Number of atoms: 1
Number of atomic orbitals: 12
Number of bands in calculation: 12
Number of valence electrons: 16
Bands to converge: occupied

... initialized

Initializing position-dependent things.

Density initialized from atomic densities
Creating initial wave functions:
  12 bands from LCAO basis set

                
                
                
       Pt       
                
                
                
                

Positions:
   0 Pt     0.000000    0.000000    0.000000    ( 0.0000,  0.0000,  0.0000)

Unit cell:
           periodic     x           y           z      points  spacing
  1. axis:    yes    0.000000    1.963000    1.963000    14     0.1619
  2. axis:    yes    1.963000    0.000000    1.963000    14     0.1619
  3. axis:    yes    1.963000    1.963000    0.000000    14     0.1619

  Lengths:   2.776101   2.776101   2.776101
  Angles:   60.000000  60.000000  60.000000

Effective grid spacing dv^(1/3) = 0.1767

     iter     time        total  log10-change:
                         energy  eigst   dens
iter:   1 09:45:26    -6.830678
iter:   2 09:45:28    -6.766392  -1.55  -1.45
iter:   3 09:45:29    -6.525783  -1.33  -1.48
iter:   4 09:45:31    -6.423990  -2.44  -1.80
iter:   5 09:45:32    -6.423954  -2.61  -2.19
iter:   6 09:45:34    -6.421997c -3.97  -2.58
iter:   7 09:45:35    -6.420902c -4.44  -2.86
iter:   8 09:45:36    -6.421155c -4.24  -3.16
iter:   9 09:45:37    -6.421159c -5.97  -4.07c
iter:  10 09:45:39    -6.421155c -6.56  -4.25c
iter:  11 09:45:40    -6.421158c -6.13  -3.90
iter:  12 09:45:41    -6.421157c -7.89c -5.17c

Converged after 12 iterations.

Dipole moment: (0.000000, 0.000000, 0.000000) |e|*Ang

Energy contributions relative to reference atoms: (reference = -500375.362767)

Kinetic:         -4.024960
Potential:       +2.443492
External:        +0.000000
XC:              -4.270529
Entropy (-ST):   -0.054628
Local:           -0.541846
--------------------------
Free energy:     -6.448471
Extrapolated:    -6.421157

Showing only first 2 kpts
 Kpt  Band  Eigenvalues  Occupancy
  0     6      8.44405    2.00000
  0     7     10.29665    2.00000
  0     8     10.48039    2.00000
  0     9     27.56622    0.00000

  1     6      8.35235    2.00000
  1     7     10.42835    2.00000
  1     8     10.42835    2.00000
  1     9     27.28670    0.00000


Fermi level: 12.06851

No gap
Writing to Assignment 4/output/Pt_calculation_a=3.93.gpw (mode='')

Timing:                              incl.     excl.
-----------------------------------------------------------
Hamiltonian:                         0.066     0.000   0.0% |
 Atomic:                             0.059     0.000   0.0% |
  XC Correction:                     0.058     0.058   0.3% |
 Calculate atomic Hamiltonians:      0.000     0.000   0.0% |
 Communicate:                        0.000     0.000   0.0% |
 Initialize Hamiltonian:             0.000     0.000   0.0% |
 Poisson:                            0.000     0.000   0.0% |
 XC 3D grid:                         0.007     0.007   0.0% |
LCAO initialization:                 2.635     0.056   0.3% |
 LCAO eigensolver:                   0.339     0.005   0.0% |
  Calculate projections:             0.003     0.003   0.0% |
  DenseAtomicCorrection:             0.010     0.010   0.1% |
  Distribute overlap matrix:         0.003     0.003   0.0% |
  Orbital Layouts:                   0.032     0.032   0.2% |
  Potential matrix:                  0.247     0.247   1.3% ||
  Sum over cells:                    0.039     0.039   0.2% |
 LCAO to grid:                       1.684     1.684   8.7% |--|
 Set positions (LCAO WFS):           0.556     0.079   0.4% |
  Basic WFS set positions:           0.001     0.001   0.0% |
  Basis functions set positions:     0.000     0.000   0.0% |
  P tci:                             0.125     0.125   0.7% |
  ST tci:                            0.341     0.341   1.8% ||
  mktci:                             0.009     0.009   0.0% |
PWDescriptor:                        0.012     0.012   0.1% |
SCF-cycle:                          16.158     0.720   3.7% ||
 Davidson:                          14.082     3.359  17.4% |------|
  Apply H:                           1.351     1.194   6.2% |-|
   HMM T:                            0.157     0.157   0.8% |
  Subspace diag:                     2.538     0.134   0.7% |
   calc_h_matrix:                    1.708     0.352   1.8% ||
    Apply H:                         1.356     1.192   6.2% |-|
     HMM T:                          0.164     0.164   0.9% |
   diagonalize:                      0.384     0.384   2.0% ||
   rotate_psi:                       0.312     0.312   1.6% ||
  calc. matrices:                    4.638     1.956  10.2% |---|
   Apply H:                          2.682     2.369  12.3% |----|
    HMM T:                           0.312     0.312   1.6% ||
  diagonalize:                       1.848     1.848   9.6% |---|
  rotate_psi:                        0.347     0.347   1.8% ||
 Density:                            0.531     0.000   0.0% |
  Atomic density matrices:           0.030     0.030   0.2% |
  Mix:                               0.015     0.015   0.1% |
  Multipole moments:                 0.001     0.001   0.0% |
  Pseudo density:                    0.485     0.411   2.1% ||
   Symmetrize density:               0.074     0.074   0.4% |
 Hamiltonian:                        0.743     0.003   0.0% |
  Atomic:                            0.652     0.005   0.0% |
   XC Correction:                    0.647     0.647   3.4% ||
  Calculate atomic Hamiltonians:     0.005     0.005   0.0% |
  Communicate:                       0.000     0.000   0.0% |
  Poisson:                           0.001     0.001   0.0% |
  XC 3D grid:                        0.083     0.083   0.4% |
 Orthonormalize:                     0.082     0.010   0.1% |
  calc_s_matrix:                     0.020     0.020   0.1% |
  inverse-cholesky:                  0.011     0.011   0.1% |
  projections:                       0.025     0.025   0.1% |
  rotate_psi_s:                      0.015     0.015   0.1% |
Set symmetry:                        0.079     0.079   0.4% |
Other:                               0.303     0.303   1.6% ||
-----------------------------------------------------------
Total:                                        19.253 100.0%

Memory usage: 263.59 MiB
Date: Wed Feb 15 09:45:41 2023
