
  ___ ___ ___ _ _ _  
 |   |   |_  | | | | 
 | | | | | . | | | | 
 |__ |  _|___|_____|  22.8.0
 |___|_|             

User:   gotols@vera03-2
Date:   Tue Feb 14 15:45:57 2023
Arch:   x86_64
Pid:    71373
CWD:    /cephyr/users/gotols/Vera/TIF320-Computational-materials-and-molecular-physics-Assignments
Python: 3.10.4
gpaw:   /apps/Arch/software/GPAW/22.8.0-foss-2022a/lib/python3.10/site-packages/gpaw
_gpaw:  /apps/Arch/software/GPAW/22.8.0-foss-2022a/lib/python3.10/site-packages/
        _gpaw.cpython-310-x86_64-linux-gnu.so
ase:    /apps/Arch/software/ASE/3.22.1-foss-2022a/lib/python3.10/site-packages/ase (version 3.22.1)
numpy:  /apps/Arch/software/SciPy-bundle/2022.05-foss-2022a/lib/python3.10/site-packages/numpy (version 1.22.3)
scipy:  /apps/Arch/software/SciPy-bundle/2022.05-foss-2022a/lib/python3.10/site-packages/scipy (version 1.8.1)
libxc:  5.2.3
units:  Angstrom and eV
cores: 1
OpenMP: False
OMP_NUM_THREADS: 1

Input parameters:
  kpts: [12 12 12]
  mode: {ecut: 450.00000000000006,
         name: pw}
  xc: PBE

System changes: positions, numbers, cell, pbc, initial_charges, initial_magmoms 

Initialize ...

species:
  Rh:
    name: Rhodium
    id: 4e1d209aee696a641de1ffa1459b299f
    Z: 45.0
    valence: 15
    core: 30
    charge: 0.0
    file: /apps/Common/software/GPAW-setups/0.9.20000/Rh.PBE.gz
    compensation charges: {type: gauss,
                           rc: 0.38,
                           lmax: 2}
    cutoffs: {filter: 2.48,
              core: 2.35}
    valence states:
      #              energy  rcut
      - 5s(1.00)    -4.297   1.270
      - 4p(6.00)   -50.429   1.381
      - 5p(0.00)    -0.852   1.381
      - 4d(8.00)    -5.942   1.244
      -  s          22.915   1.270
      -  d          21.270   1.244
  
    # Using partial waves for Rh as LCAO basis

Reference energy: -130134.647000  # eV

Spin-paired calculation

Convergence criteria:
 Maximum [total energy] change in last 3 cyles: 0.0005 eV / electron
 Maximum integral of absolute [dens]ity change: 0.0001 electrons / valence electron
 Maximum integral of absolute [eigenst]ate change: 4e-08 eV^2 / valence electron
 Maximum number of scf [iter]ations: 333
 (Square brackets indicate name in SCF output, whereas a 'c' in
 the SCF output indicates the quantity has converged.)

Symmetries present (total): 48

  ( 1  0  0)  ( 1  0  0)  ( 1  0  0)  ( 1  0  0)  ( 1  0 -1)  ( 1  0 -1)
  ( 1  0 -1)  ( 1 -1  0)  ( 0  1  0)  ( 0  0  1)  ( 1  0  0)  ( 1 -1  0)
  ( 1 -1  0)  ( 1  0 -1)  ( 0  0  1)  ( 0  1  0)  ( 1 -1  0)  ( 1  0  0)

  ( 1  0 -1)  ( 1  0 -1)  ( 1 -1  0)  ( 1 -1  0)  ( 1 -1  0)  ( 1 -1  0)
  ( 0  1 -1)  ( 0  0 -1)  ( 1  0  0)  ( 1  0 -1)  ( 0 -1  1)  ( 0 -1  0)
  ( 0  0 -1)  ( 0  1 -1)  ( 1  0 -1)  ( 1  0  0)  ( 0 -1  0)  ( 0 -1  1)

  ( 0  1  0)  ( 0  1  0)  ( 0  1  0)  ( 0  1  0)  ( 0  1 -1)  ( 0  1 -1)
  ( 1  0  0)  ( 0  1 -1)  ( 0  0  1)  (-1  1  0)  ( 1  0 -1)  ( 0  1  0)
  ( 0  0  1)  (-1  1  0)  ( 1  0  0)  ( 0  1 -1)  ( 0  0 -1)  (-1  1  0)

  ( 0  1 -1)  ( 0  1 -1)  ( 0  0  1)  ( 0  0  1)  ( 0  0  1)  ( 0  0  1)
  ( 0  0 -1)  (-1  1  0)  ( 1  0  0)  ( 0  1  0)  ( 0 -1  1)  (-1  0  1)
  ( 1  0 -1)  ( 0  1  0)  ( 0  1  0)  ( 1  0  0)  (-1  0  1)  ( 0 -1  1)

  ( 0  0 -1)  ( 0  0 -1)  ( 0  0 -1)  ( 0  0 -1)  ( 0 -1  1)  ( 0 -1  1)
  ( 1  0 -1)  ( 0  1 -1)  ( 0 -1  0)  (-1  0  0)  ( 1 -1  0)  ( 0  0  1)
  ( 0  1 -1)  ( 1  0 -1)  (-1  0  0)  ( 0 -1  0)  ( 0 -1  0)  (-1  0  1)

  ( 0 -1  1)  ( 0 -1  1)  ( 0 -1  0)  ( 0 -1  0)  ( 0 -1  0)  ( 0 -1  0)
  ( 0 -1  0)  (-1  0  1)  ( 1 -1  0)  ( 0  0 -1)  ( 0 -1  1)  (-1  0  0)
  ( 1 -1  0)  ( 0  0  1)  ( 0 -1  1)  (-1  0  0)  ( 1 -1  0)  ( 0  0 -1)

  (-1  1  0)  (-1  1  0)  (-1  1  0)  (-1  1  0)  (-1  0  1)  (-1  0  1)
  ( 0  1  0)  ( 0  1 -1)  (-1  0  1)  (-1  0  0)  ( 0  0  1)  ( 0 -1  1)
  ( 0  1 -1)  ( 0  1  0)  (-1  0  0)  (-1  0  1)  ( 0 -1  1)  ( 0  0  1)

  (-1  0  1)  (-1  0  1)  (-1  0  0)  (-1  0  0)  (-1  0  0)  (-1  0  0)
  (-1  1  0)  (-1  0  0)  ( 0  0 -1)  ( 0 -1  0)  (-1  1  0)  (-1  0  1)
  (-1  0  0)  (-1  1  0)  ( 0 -1  0)  ( 0  0 -1)  (-1  0  1)  (-1  1  0)
Note: your k-points are not as symmetric as your crystal!

1728 k-points: 12 x 12 x 12 Monkhorst-Pack grid
182 k-points in the irreducible part of the Brillouin zone
       k-points in crystal coordinates                weights
   0:     0.04166667    0.04166667   -0.04166667          6/1728
   1:     0.04166667    0.04166667    0.04166667          2/1728
   2:     0.12500000   -0.04166667   -0.04166667          6/1728
   3:     0.12500000    0.04166667   -0.12500000         12/1728
   4:     0.12500000    0.04166667   -0.04166667         12/1728
   5:     0.12500000    0.04166667    0.04166667          6/1728
   6:     0.12500000    0.12500000   -0.12500000          6/1728
   7:     0.12500000    0.12500000   -0.04166667          6/1728
   8:     0.12500000    0.12500000    0.04166667          6/1728
   9:     0.12500000    0.12500000    0.12500000          2/1728
          ...
 181:     0.45833333    0.45833333    0.45833333          2/1728

Wave functions: Plane wave expansion
  Cutoff energy: 450.000 eV
  Number of coefficients (min, max): 348, 383
  Pulay-stress correction: 0.000000 eV/Ang^3 (de/decut=0.000000)
  Using FFTW library
  ScaLapack parameters: grid=1x1, blocksize=None
  Wavefunction extrapolation:
    Improved wavefunction reuse through dual PAW basis 

Occupation numbers: Fermi-Dirac:
  width: 0.1000  # eV
 

Eigensolver
   Davidson(niter=2) 

Densities:
  Coarse grid: 15*15*15 grid
  Fine grid: 30*30*30 grid
  Total Charge: 0.000000 

Density mixing:
  Method: separate
  Backend: pulay
  Linear mixing parameter: 0.05
  old densities: 5
  Damping of long wavelength oscillations: 50 

Hamiltonian:
  XC and Coulomb potentials evaluated on a 30*30*30 grid
  Using the PBE Exchange-Correlation functional
  External potential:
    NoExternalPotential
 

XC parameters: PBE with 2 nearest neighbor stencil

Memory estimate:
  Process memory now: 265.46 MiB
  Calculator: 24.20 MiB
    Density: 1.32 MiB
      Arrays: 0.67 MiB
      Localized functions: 0.39 MiB
      Mixer: 0.26 MiB
    Hamiltonian: 0.45 MiB
      Arrays: 0.44 MiB
      XC: 0.00 MiB
      Poisson: 0.00 MiB
      vbar: 0.01 MiB
    Wavefunctions: 22.44 MiB
      Arrays psit_nG: 12.76 MiB
      Eigensolver: 0.12 MiB
      Projections: 0.60 MiB
      Projectors: 7.76 MiB
      PW-descriptor: 1.19 MiB

Total number of cores used: 1

Number of atoms: 1
Number of atomic orbitals: 12
Number of bands in calculation: 12
Number of valence electrons: 15
Bands to converge: occupied

... initialized

Initializing position-dependent things.

Density initialized from atomic densities
Creating initial wave functions:
  12 bands from LCAO basis set

                
                
                
       Rh       
                
                
                
                

Positions:
   0 Rh     0.000000    0.000000    0.000000    ( 0.0000,  0.0000,  0.0000)

Unit cell:
           periodic     x           y           z      points  spacing
  1. axis:    yes    0.000000    2.050000    2.050000    15     0.1578
  2. axis:    yes    2.050000    0.000000    2.050000    15     0.1578
  3. axis:    yes    2.050000    2.050000    0.000000    15     0.1578

  Lengths:   2.899138   2.899138   2.899138
  Angles:   60.000000  60.000000  60.000000

Effective grid spacing dv^(1/3) = 0.1722

     iter     time        total  log10-change:
                         energy  eigst   dens
iter:   1 15:46:01    -7.489907
iter:   2 15:46:02    -7.365465  -2.16  -1.34
iter:   3 15:46:03    -7.033366  -1.20  -1.38
iter:   4 15:46:05    -6.982819  -3.19  -1.83
iter:   5 15:46:06    -6.973315  -2.13  -2.03
iter:   6 15:46:07    -6.956567  -3.20  -2.19
iter:   7 15:46:08    -6.956248  -4.65  -2.93
iter:   8 15:46:09    -6.956000c -4.40  -3.12
iter:   9 15:46:10    -6.956024c -4.85  -3.20
iter:  10 15:46:11    -6.956027c -6.36  -3.97
iter:  11 15:46:12    -6.956008c -6.30  -3.87
iter:  12 15:46:14    -6.956006c -6.86  -4.49c
iter:  13 15:46:15    -6.956006c -8.29c -5.52c

Converged after 13 iterations.

Dipole moment: (-0.000000, 0.000000, 0.000000) |e|*Ang

Energy contributions relative to reference atoms: (reference = -130134.647000)

Kinetic:        -15.886201
Potential:      +11.258734
External:        +0.000000
XC:              -2.226410
Entropy (-ST):   -0.067969
Local:           -0.068145
--------------------------
Free energy:     -6.989991
Extrapolated:    -6.956006

Showing only first 2 kpts
 Kpt  Band  Eigenvalues  Occupancy
  0     5      6.07371    2.00000
  0     6      6.07787    2.00000
  0     7      7.34465    1.99924
  0     8      7.46356    1.99750

  1     5      6.01274    2.00000
  1     6      6.01274    2.00000
  1     7      7.42885    1.99823
  1     8      7.42885    1.99823


Fermi level: 8.13184

No gap
Writing to Assignment 4/output/Rh_calculation_a=4.1.gpw (mode='')

Timing:                              incl.     excl.
-----------------------------------------------------------
Hamiltonian:                         0.049     0.000   0.0% |
 Atomic:                             0.039     0.000   0.0% |
  XC Correction:                     0.039     0.039   0.2% |
 Calculate atomic Hamiltonians:      0.000     0.000   0.0% |
 Communicate:                        0.000     0.000   0.0% |
 Initialize Hamiltonian:             0.000     0.000   0.0% |
 Poisson:                            0.000     0.000   0.0% |
 XC 3D grid:                         0.008     0.008   0.0% |
LCAO initialization:                 2.460     0.056   0.3% |
 LCAO eigensolver:                   0.299     0.004   0.0% |
  Calculate projections:             0.002     0.002   0.0% |
  DenseAtomicCorrection:             0.009     0.009   0.1% |
  Distribute overlap matrix:         0.002     0.002   0.0% |
  Orbital Layouts:                   0.027     0.027   0.2% |
  Potential matrix:                  0.223     0.223   1.3% ||
  Sum over cells:                    0.032     0.032   0.2% |
 LCAO to grid:                       1.615     1.615   9.2% |---|
 Set positions (LCAO WFS):           0.490     0.082   0.5% |
  Basic WFS set positions:           0.001     0.001   0.0% |
  Basis functions set positions:     0.000     0.000   0.0% |
  P tci:                             0.129     0.129   0.7% |
  ST tci:                            0.269     0.269   1.5% ||
  mktci:                             0.009     0.009   0.1% |
PWDescriptor:                        0.015     0.015   0.1% |
SCF-cycle:                          14.636     0.761   4.3% |-|
 Davidson:                          12.590     2.955  16.8% |------|
  Apply H:                           1.348     1.213   6.9% |--|
   HMM T:                            0.135     0.135   0.8% |
  Subspace diag:                     2.283     0.114   0.6% |
   calc_h_matrix:                    1.663     0.303   1.7% ||
    Apply H:                         1.360     1.217   6.9% |--|
     HMM T:                          0.143     0.143   0.8% |
   diagonalize:                      0.329     0.329   1.9% ||
   rotate_psi:                       0.177     0.177   1.0% |
  calc. matrices:                    4.337     1.658   9.4% |---|
   Apply H:                          2.679     2.411  13.7% |----|
    HMM T:                           0.268     0.268   1.5% ||
  diagonalize:                       1.406     1.406   8.0% |--|
  rotate_psi:                        0.261     0.261   1.5% ||
 Density:                            0.632     0.000   0.0% |
  Atomic density matrices:           0.031     0.031   0.2% |
  Mix:                               0.015     0.015   0.1% |
  Multipole moments:                 0.001     0.001   0.0% |
  Pseudo density:                    0.586     0.491   2.8% ||
   Symmetrize density:               0.095     0.095   0.5% |
 Hamiltonian:                        0.594     0.002   0.0% |
  Atomic:                            0.490     0.004   0.0% |
   XC Correction:                    0.486     0.486   2.8% ||
  Calculate atomic Hamiltonians:     0.004     0.004   0.0% |
  Communicate:                       0.000     0.000   0.0% |
  Poisson:                           0.001     0.001   0.0% |
  XC 3D grid:                        0.096     0.096   0.5% |
 Orthonormalize:                     0.058     0.008   0.0% |
  calc_s_matrix:                     0.016     0.016   0.1% |
  inverse-cholesky:                  0.009     0.009   0.1% |
  projections:                       0.020     0.020   0.1% |
  rotate_psi_s:                      0.006     0.006   0.0% |
Set symmetry:                        0.083     0.083   0.5% |
Other:                               0.319     0.319   1.8% ||
-----------------------------------------------------------
Total:                                        17.561 100.0%

Memory usage: 265.46 MiB
Date: Tue Feb 14 15:46:15 2023
