
  ___ ___ ___ _ _ _  
 |   |   |_  | | | | 
 | | | | | . | | | | 
 |__ |  _|___|_____|  22.8.0
 |___|_|             

User:   gotols@vera03-2
Date:   Tue Feb 14 16:27:07 2023
Arch:   x86_64
Pid:    74144
CWD:    /cephyr/users/gotols/Vera/TIF320-Computational-materials-and-molecular-physics-Assignments
Python: 3.10.4
gpaw:   /apps/Arch/software/GPAW/22.8.0-foss-2022a/lib/python3.10/site-packages/gpaw
_gpaw:  /apps/Arch/software/GPAW/22.8.0-foss-2022a/lib/python3.10/site-packages/
        _gpaw.cpython-310-x86_64-linux-gnu.so
ase:    /apps/Arch/software/ASE/3.22.1-foss-2022a/lib/python3.10/site-packages/ase (version 3.22.1)
numpy:  /apps/Arch/software/SciPy-bundle/2022.05-foss-2022a/lib/python3.10/site-packages/numpy (version 1.22.3)
scipy:  /apps/Arch/software/SciPy-bundle/2022.05-foss-2022a/lib/python3.10/site-packages/scipy (version 1.8.1)
libxc:  5.2.3
units:  Angstrom and eV
cores: 1
OpenMP: False
OMP_NUM_THREADS: 1

Input parameters:
  kpts: [12 12 12]
  mode: {ecut: 450.00000000000006,
         name: pw}
  xc: PBE

System changes: positions, numbers, cell, pbc, initial_charges, initial_magmoms 

Initialize ...

species:
  Rh:
    name: Rhodium
    id: 4e1d209aee696a641de1ffa1459b299f
    Z: 45.0
    valence: 15
    core: 30
    charge: 0.0
    file: /apps/Common/software/GPAW-setups/0.9.20000/Rh.PBE.gz
    compensation charges: {type: gauss,
                           rc: 0.38,
                           lmax: 2}
    cutoffs: {filter: 2.48,
              core: 2.35}
    valence states:
      #              energy  rcut
      - 5s(1.00)    -4.297   1.270
      - 4p(6.00)   -50.429   1.381
      - 5p(0.00)    -0.852   1.381
      - 4d(8.00)    -5.942   1.244
      -  s          22.915   1.270
      -  d          21.270   1.244
  
    # Using partial waves for Rh as LCAO basis

Reference energy: -130134.647000  # eV

Spin-paired calculation

Convergence criteria:
 Maximum [total energy] change in last 3 cyles: 0.0005 eV / electron
 Maximum integral of absolute [dens]ity change: 0.0001 electrons / valence electron
 Maximum integral of absolute [eigenst]ate change: 4e-08 eV^2 / valence electron
 Maximum number of scf [iter]ations: 333
 (Square brackets indicate name in SCF output, whereas a 'c' in
 the SCF output indicates the quantity has converged.)

Symmetries present (total): 48

  ( 1  0  0)  ( 1  0  0)  ( 1  0  0)  ( 1  0  0)  ( 1  0 -1)  ( 1  0 -1)
  ( 1  0 -1)  ( 1 -1  0)  ( 0  1  0)  ( 0  0  1)  ( 1  0  0)  ( 1 -1  0)
  ( 1 -1  0)  ( 1  0 -1)  ( 0  0  1)  ( 0  1  0)  ( 1 -1  0)  ( 1  0  0)

  ( 1  0 -1)  ( 1  0 -1)  ( 1 -1  0)  ( 1 -1  0)  ( 1 -1  0)  ( 1 -1  0)
  ( 0  1 -1)  ( 0  0 -1)  ( 1  0  0)  ( 1  0 -1)  ( 0 -1  1)  ( 0 -1  0)
  ( 0  0 -1)  ( 0  1 -1)  ( 1  0 -1)  ( 1  0  0)  ( 0 -1  0)  ( 0 -1  1)

  ( 0  1  0)  ( 0  1  0)  ( 0  1  0)  ( 0  1  0)  ( 0  1 -1)  ( 0  1 -1)
  ( 1  0  0)  ( 0  1 -1)  ( 0  0  1)  (-1  1  0)  ( 1  0 -1)  ( 0  1  0)
  ( 0  0  1)  (-1  1  0)  ( 1  0  0)  ( 0  1 -1)  ( 0  0 -1)  (-1  1  0)

  ( 0  1 -1)  ( 0  1 -1)  ( 0  0  1)  ( 0  0  1)  ( 0  0  1)  ( 0  0  1)
  ( 0  0 -1)  (-1  1  0)  ( 1  0  0)  ( 0  1  0)  ( 0 -1  1)  (-1  0  1)
  ( 1  0 -1)  ( 0  1  0)  ( 0  1  0)  ( 1  0  0)  (-1  0  1)  ( 0 -1  1)

  ( 0  0 -1)  ( 0  0 -1)  ( 0  0 -1)  ( 0  0 -1)  ( 0 -1  1)  ( 0 -1  1)
  ( 1  0 -1)  ( 0  1 -1)  ( 0 -1  0)  (-1  0  0)  ( 1 -1  0)  ( 0  0  1)
  ( 0  1 -1)  ( 1  0 -1)  (-1  0  0)  ( 0 -1  0)  ( 0 -1  0)  (-1  0  1)

  ( 0 -1  1)  ( 0 -1  1)  ( 0 -1  0)  ( 0 -1  0)  ( 0 -1  0)  ( 0 -1  0)
  ( 0 -1  0)  (-1  0  1)  ( 1 -1  0)  ( 0  0 -1)  ( 0 -1  1)  (-1  0  0)
  ( 1 -1  0)  ( 0  0  1)  ( 0 -1  1)  (-1  0  0)  ( 1 -1  0)  ( 0  0 -1)

  (-1  1  0)  (-1  1  0)  (-1  1  0)  (-1  1  0)  (-1  0  1)  (-1  0  1)
  ( 0  1  0)  ( 0  1 -1)  (-1  0  1)  (-1  0  0)  ( 0  0  1)  ( 0 -1  1)
  ( 0  1 -1)  ( 0  1  0)  (-1  0  0)  (-1  0  1)  ( 0 -1  1)  ( 0  0  1)

  (-1  0  1)  (-1  0  1)  (-1  0  0)  (-1  0  0)  (-1  0  0)  (-1  0  0)
  (-1  1  0)  (-1  0  0)  ( 0  0 -1)  ( 0 -1  0)  (-1  1  0)  (-1  0  1)
  (-1  0  0)  (-1  1  0)  ( 0 -1  0)  ( 0  0 -1)  (-1  0  1)  (-1  1  0)
Note: your k-points are not as symmetric as your crystal!

1728 k-points: 12 x 12 x 12 Monkhorst-Pack grid
182 k-points in the irreducible part of the Brillouin zone
       k-points in crystal coordinates                weights
   0:     0.04166667    0.04166667   -0.04166667          6/1728
   1:     0.04166667    0.04166667    0.04166667          2/1728
   2:     0.12500000   -0.04166667   -0.04166667          6/1728
   3:     0.12500000    0.04166667   -0.12500000         12/1728
   4:     0.12500000    0.04166667   -0.04166667         12/1728
   5:     0.12500000    0.04166667    0.04166667          6/1728
   6:     0.12500000    0.12500000   -0.12500000          6/1728
   7:     0.12500000    0.12500000   -0.04166667          6/1728
   8:     0.12500000    0.12500000    0.04166667          6/1728
   9:     0.12500000    0.12500000    0.12500000          2/1728
          ...
 181:     0.45833333    0.45833333    0.45833333          2/1728

Wave functions: Plane wave expansion
  Cutoff energy: 450.000 eV
  Number of coefficients (min, max): 284, 305
  Pulay-stress correction: 0.000000 eV/Ang^3 (de/decut=0.000000)
  Using FFTW library
  ScaLapack parameters: grid=1x1, blocksize=None
  Wavefunction extrapolation:
    Improved wavefunction reuse through dual PAW basis 

Occupation numbers: Fermi-Dirac:
  width: 0.1000  # eV
 

Eigensolver
   Davidson(niter=2) 

Densities:
  Coarse grid: 14*14*14 grid
  Fine grid: 28*28*28 grid
  Total Charge: 0.000000 

Density mixing:
  Method: separate
  Backend: pulay
  Linear mixing parameter: 0.05
  old densities: 5
  Damping of long wavelength oscillations: 50 

Hamiltonian:
  XC and Coulomb potentials evaluated on a 28*28*28 grid
  Using the PBE Exchange-Correlation functional
  External potential:
    NoExternalPotential
 

XC parameters: PBE with 2 nearest neighbor stencil

Memory estimate:
  Process memory now: 256.22 MiB
  Calculator: 19.36 MiB
    Density: 1.06 MiB
      Arrays: 0.54 MiB
      Localized functions: 0.31 MiB
      Mixer: 0.21 MiB
    Hamiltonian: 0.36 MiB
      Arrays: 0.36 MiB
      XC: 0.00 MiB
      Poisson: 0.00 MiB
      vbar: 0.01 MiB
    Wavefunctions: 17.93 MiB
      Arrays psit_nG: 10.16 MiB
      Eigensolver: 0.10 MiB
      Projections: 0.60 MiB
      Projectors: 6.12 MiB
      PW-descriptor: 0.95 MiB

Total number of cores used: 1

Number of atoms: 1
Number of atomic orbitals: 12
Number of bands in calculation: 12
Number of valence electrons: 15
Bands to converge: occupied

... initialized

Initializing position-dependent things.

Density initialized from atomic densities
Creating initial wave functions:
  12 bands from LCAO basis set

                
                
                
       Rh       
                
                
                
                

Positions:
   0 Rh     0.000000    0.000000    0.000000    ( 0.0000,  0.0000,  0.0000)

Unit cell:
           periodic     x           y           z      points  spacing
  1. axis:    yes    0.000000    1.891600    1.891600    14     0.1560
  2. axis:    yes    1.891600    0.000000    1.891600    14     0.1560
  3. axis:    yes    1.891600    1.891600    0.000000    14     0.1560

  Lengths:   2.675126   2.675126   2.675126
  Angles:   60.000000  60.000000  60.000000

Effective grid spacing dv^(1/3) = 0.1702

     iter     time        total  log10-change:
                         energy  eigst   dens
iter:   1 16:27:12    -7.873980
iter:   2 16:27:13    -7.760250  -1.81  -1.36
iter:   3 16:27:14    -7.399383  -1.19  -1.39
iter:   4 16:27:15    -7.311479  -2.77  -1.78
iter:   5 16:27:16    -7.288256  -2.29  -2.12
iter:   6 16:27:17    -7.285410  -3.68  -2.69
iter:   7 16:27:18    -7.285093c -4.46  -2.92
iter:   8 16:27:19    -7.284888c -4.26  -3.09
iter:   9 16:27:20    -7.284794c -5.02  -3.25
iter:  10 16:27:21    -7.284790c -6.44  -3.88
iter:  11 16:27:22    -7.284803c -5.98  -3.86
iter:  12 16:27:23    -7.284795c -6.45  -4.16c
iter:  13 16:27:24    -7.284795c -7.87c -5.23c

Converged after 13 iterations.

Dipole moment: (-0.000000, -0.000000, -0.000000) |e|*Ang

Energy contributions relative to reference atoms: (reference = -130134.647000)

Kinetic:         -0.939404
Potential:       -1.157883
External:        +0.000000
XC:              -5.111594
Entropy (-ST):   -0.043406
Local:           -0.054212
--------------------------
Free energy:     -7.306498
Extrapolated:    -7.284795

Showing only first 2 kpts
 Kpt  Band  Eigenvalues  Occupancy
  0     5      9.09465    2.00000
  0     6      9.10066    2.00000
  0     7     10.95544    1.99998
  0     8     11.13899    1.99988

  1     5      9.00703    2.00000
  1     6      9.00703    2.00000
  1     7     11.08800    1.99993
  1     8     11.08800    1.99993


Fermi level: 12.11158

No gap
Writing to Assignment 4/output/Rh_calculation_a=3.78.gpw (mode='')

Timing:                              incl.     excl.
-----------------------------------------------------------
Hamiltonian:                         0.055     0.000   0.0% |
 Atomic:                             0.047     0.000   0.0% |
  XC Correction:                     0.047     0.047   0.3% |
 Calculate atomic Hamiltonians:      0.000     0.000   0.0% |
 Communicate:                        0.000     0.000   0.0% |
 Initialize Hamiltonian:             0.000     0.000   0.0% |
 Poisson:                            0.000     0.000   0.0% |
 XC 3D grid:                         0.007     0.007   0.0% |
LCAO initialization:                 2.851     0.064   0.4% |
 LCAO eigensolver:                   0.389     0.004   0.0% |
  Calculate projections:             0.002     0.002   0.0% |
  DenseAtomicCorrection:             0.009     0.009   0.1% |
  Distribute overlap matrix:         0.002     0.002   0.0% |
  Orbital Layouts:                   0.027     0.027   0.2% |
  Potential matrix:                  0.313     0.313   1.9% ||
  Sum over cells:                    0.032     0.032   0.2% |
 LCAO to grid:                       1.803     1.803  10.7% |---|
 Set positions (LCAO WFS):           0.595     0.085   0.5% |
  Basic WFS set positions:           0.001     0.001   0.0% |
  Basis functions set positions:     0.000     0.000   0.0% |
  P tci:                             0.130     0.130   0.8% |
  ST tci:                            0.369     0.369   2.2% ||
  mktci:                             0.010     0.010   0.1% |
PWDescriptor:                        0.013     0.013   0.1% |
SCF-cycle:                          13.607     0.884   5.2% |-|
 Davidson:                          11.516     2.815  16.6% |------|
  Apply H:                           1.147     1.016   6.0% |-|
   HMM T:                            0.131     0.131   0.8% |
  Subspace diag:                     2.020     0.112   0.7% |
   calc_h_matrix:                    1.421     0.267   1.6% ||
    Apply H:                         1.154     1.017   6.0% |-|
     HMM T:                          0.138     0.138   0.8% |
   diagonalize:                      0.322     0.322   1.9% ||
   rotate_psi:                       0.165     0.165   1.0% |
  calc. matrices:                    3.861     1.595   9.4% |---|
   Apply H:                          2.266     2.009  11.9% |----|
    HMM T:                           0.257     0.257   1.5% ||
  diagonalize:                       1.430     1.430   8.5% |--|
  rotate_psi:                        0.243     0.243   1.4% ||
 Density:                            0.545     0.000   0.0% |
  Atomic density matrices:           0.033     0.033   0.2% |
  Mix:                               0.014     0.014   0.1% |
  Multipole moments:                 0.001     0.001   0.0% |
  Pseudo density:                    0.497     0.420   2.5% ||
   Symmetrize density:               0.077     0.077   0.5% |
 Hamiltonian:                        0.601     0.002   0.0% |
  Atomic:                            0.514     0.005   0.0% |
   XC Correction:                    0.509     0.509   3.0% ||
  Calculate atomic Hamiltonians:     0.004     0.004   0.0% |
  Communicate:                       0.000     0.000   0.0% |
  Poisson:                           0.001     0.001   0.0% |
  XC 3D grid:                        0.080     0.080   0.5% |
 Orthonormalize:                     0.061     0.008   0.1% |
  calc_s_matrix:                     0.016     0.016   0.1% |
  inverse-cholesky:                  0.009     0.009   0.1% |
  projections:                       0.022     0.022   0.1% |
  rotate_psi_s:                      0.006     0.006   0.0% |
Set symmetry:                        0.088     0.088   0.5% |
Other:                               0.293     0.293   1.7% ||
-----------------------------------------------------------
Total:                                        16.907 100.0%

Memory usage: 256.74 MiB
Date: Tue Feb 14 16:27:24 2023
