
  ___ ___ ___ _ _ _  
 |   |   |_  | | | | 
 | | | | | . | | | | 
 |__ |  _|___|_____|  22.8.0
 |___|_|             

User:   gotols@vera03-2
Date:   Tue Feb 14 15:46:51 2023
Arch:   x86_64
Pid:    71373
CWD:    /cephyr/users/gotols/Vera/TIF320-Computational-materials-and-molecular-physics-Assignments
Python: 3.10.4
gpaw:   /apps/Arch/software/GPAW/22.8.0-foss-2022a/lib/python3.10/site-packages/gpaw
_gpaw:  /apps/Arch/software/GPAW/22.8.0-foss-2022a/lib/python3.10/site-packages/
        _gpaw.cpython-310-x86_64-linux-gnu.so
ase:    /apps/Arch/software/ASE/3.22.1-foss-2022a/lib/python3.10/site-packages/ase (version 3.22.1)
numpy:  /apps/Arch/software/SciPy-bundle/2022.05-foss-2022a/lib/python3.10/site-packages/numpy (version 1.22.3)
scipy:  /apps/Arch/software/SciPy-bundle/2022.05-foss-2022a/lib/python3.10/site-packages/scipy (version 1.8.1)
libxc:  5.2.3
units:  Angstrom and eV
cores: 1
OpenMP: False
OMP_NUM_THREADS: 1

Input parameters:
  kpts: [12 12 12]
  mode: {ecut: 450.00000000000006,
         name: pw}
  xc: PBE

System changes: positions, numbers, cell, pbc, initial_charges, initial_magmoms 

Initialize ...

species:
  Rh:
    name: Rhodium
    id: 4e1d209aee696a641de1ffa1459b299f
    Z: 45.0
    valence: 15
    core: 30
    charge: 0.0
    file: /apps/Common/software/GPAW-setups/0.9.20000/Rh.PBE.gz
    compensation charges: {type: gauss,
                           rc: 0.38,
                           lmax: 2}
    cutoffs: {filter: 2.48,
              core: 2.35}
    valence states:
      #              energy  rcut
      - 5s(1.00)    -4.297   1.270
      - 4p(6.00)   -50.429   1.381
      - 5p(0.00)    -0.852   1.381
      - 4d(8.00)    -5.942   1.244
      -  s          22.915   1.270
      -  d          21.270   1.244
  
    # Using partial waves for Rh as LCAO basis

Reference energy: -130134.647000  # eV

Spin-paired calculation

Convergence criteria:
 Maximum [total energy] change in last 3 cyles: 0.0005 eV / electron
 Maximum integral of absolute [dens]ity change: 0.0001 electrons / valence electron
 Maximum integral of absolute [eigenst]ate change: 4e-08 eV^2 / valence electron
 Maximum number of scf [iter]ations: 333
 (Square brackets indicate name in SCF output, whereas a 'c' in
 the SCF output indicates the quantity has converged.)

Symmetries present (total): 48

  ( 1  0  0)  ( 1  0  0)  ( 1  0  0)  ( 1  0  0)  ( 1  0 -1)  ( 1  0 -1)
  ( 1  0 -1)  ( 1 -1  0)  ( 0  1  0)  ( 0  0  1)  ( 1  0  0)  ( 1 -1  0)
  ( 1 -1  0)  ( 1  0 -1)  ( 0  0  1)  ( 0  1  0)  ( 1 -1  0)  ( 1  0  0)

  ( 1  0 -1)  ( 1  0 -1)  ( 1 -1  0)  ( 1 -1  0)  ( 1 -1  0)  ( 1 -1  0)
  ( 0  1 -1)  ( 0  0 -1)  ( 1  0  0)  ( 1  0 -1)  ( 0 -1  1)  ( 0 -1  0)
  ( 0  0 -1)  ( 0  1 -1)  ( 1  0 -1)  ( 1  0  0)  ( 0 -1  0)  ( 0 -1  1)

  ( 0  1  0)  ( 0  1  0)  ( 0  1  0)  ( 0  1  0)  ( 0  1 -1)  ( 0  1 -1)
  ( 1  0  0)  ( 0  1 -1)  ( 0  0  1)  (-1  1  0)  ( 1  0 -1)  ( 0  1  0)
  ( 0  0  1)  (-1  1  0)  ( 1  0  0)  ( 0  1 -1)  ( 0  0 -1)  (-1  1  0)

  ( 0  1 -1)  ( 0  1 -1)  ( 0  0  1)  ( 0  0  1)  ( 0  0  1)  ( 0  0  1)
  ( 0  0 -1)  (-1  1  0)  ( 1  0  0)  ( 0  1  0)  ( 0 -1  1)  (-1  0  1)
  ( 1  0 -1)  ( 0  1  0)  ( 0  1  0)  ( 1  0  0)  (-1  0  1)  ( 0 -1  1)

  ( 0  0 -1)  ( 0  0 -1)  ( 0  0 -1)  ( 0  0 -1)  ( 0 -1  1)  ( 0 -1  1)
  ( 1  0 -1)  ( 0  1 -1)  ( 0 -1  0)  (-1  0  0)  ( 1 -1  0)  ( 0  0  1)
  ( 0  1 -1)  ( 1  0 -1)  (-1  0  0)  ( 0 -1  0)  ( 0 -1  0)  (-1  0  1)

  ( 0 -1  1)  ( 0 -1  1)  ( 0 -1  0)  ( 0 -1  0)  ( 0 -1  0)  ( 0 -1  0)
  ( 0 -1  0)  (-1  0  1)  ( 1 -1  0)  ( 0  0 -1)  ( 0 -1  1)  (-1  0  0)
  ( 1 -1  0)  ( 0  0  1)  ( 0 -1  1)  (-1  0  0)  ( 1 -1  0)  ( 0  0 -1)

  (-1  1  0)  (-1  1  0)  (-1  1  0)  (-1  1  0)  (-1  0  1)  (-1  0  1)
  ( 0  1  0)  ( 0  1 -1)  (-1  0  1)  (-1  0  0)  ( 0  0  1)  ( 0 -1  1)
  ( 0  1 -1)  ( 0  1  0)  (-1  0  0)  (-1  0  1)  ( 0 -1  1)  ( 0  0  1)

  (-1  0  1)  (-1  0  1)  (-1  0  0)  (-1  0  0)  (-1  0  0)  (-1  0  0)
  (-1  1  0)  (-1  0  0)  ( 0  0 -1)  ( 0 -1  0)  (-1  1  0)  (-1  0  1)
  (-1  0  0)  (-1  1  0)  ( 0 -1  0)  ( 0  0 -1)  (-1  0  1)  (-1  1  0)
Note: your k-points are not as symmetric as your crystal!

1728 k-points: 12 x 12 x 12 Monkhorst-Pack grid
182 k-points in the irreducible part of the Brillouin zone
       k-points in crystal coordinates                weights
   0:     0.04166667    0.04166667   -0.04166667          6/1728
   1:     0.04166667    0.04166667    0.04166667          2/1728
   2:     0.12500000   -0.04166667   -0.04166667          6/1728
   3:     0.12500000    0.04166667   -0.12500000         12/1728
   4:     0.12500000    0.04166667   -0.04166667         12/1728
   5:     0.12500000    0.04166667    0.04166667          6/1728
   6:     0.12500000    0.12500000   -0.12500000          6/1728
   7:     0.12500000    0.12500000   -0.04166667          6/1728
   8:     0.12500000    0.12500000    0.04166667          6/1728
   9:     0.12500000    0.12500000    0.12500000          2/1728
          ...
 181:     0.45833333    0.45833333    0.45833333          2/1728

Wave functions: Plane wave expansion
  Cutoff energy: 450.000 eV
  Number of coefficients (min, max): 455, 483
  Pulay-stress correction: 0.000000 eV/Ang^3 (de/decut=0.000000)
  Using FFTW library
  ScaLapack parameters: grid=1x1, blocksize=None
  Wavefunction extrapolation:
    Improved wavefunction reuse through dual PAW basis 

Occupation numbers: Fermi-Dirac:
  width: 0.1000  # eV
 

Eigensolver
   Davidson(niter=2) 

Densities:
  Coarse grid: 16*16*16 grid
  Fine grid: 32*32*32 grid
  Total Charge: 0.000000 

Density mixing:
  Method: separate
  Backend: pulay
  Linear mixing parameter: 0.05
  old densities: 5
  Damping of long wavelength oscillations: 50 

Hamiltonian:
  XC and Coulomb potentials evaluated on a 32*32*32 grid
  Using the PBE Exchange-Correlation functional
  External potential:
    NoExternalPotential
 

XC parameters: PBE with 2 nearest neighbor stencil

Memory estimate:
  Process memory now: 265.46 MiB
  Calculator: 30.11 MiB
    Density: 1.61 MiB
      Arrays: 0.81 MiB
      Localized functions: 0.49 MiB
      Mixer: 0.31 MiB
    Hamiltonian: 0.54 MiB
      Arrays: 0.53 MiB
      XC: 0.00 MiB
      Poisson: 0.00 MiB
      vbar: 0.01 MiB
    Wavefunctions: 27.96 MiB
      Arrays psit_nG: 16.10 MiB
      Eigensolver: 0.15 MiB
      Projections: 0.60 MiB
      Projectors: 9.62 MiB
      PW-descriptor: 1.50 MiB

Total number of cores used: 1

Number of atoms: 1
Number of atomic orbitals: 12
Number of bands in calculation: 12
Number of valence electrons: 15
Bands to converge: occupied

... initialized

Initializing position-dependent things.

Density initialized from atomic densities
Creating initial wave functions:
  12 bands from LCAO basis set

                
                
                
       Rh       
                
                
                
                

Positions:
   0 Rh     0.000000    0.000000    0.000000    ( 0.0000,  0.0000,  0.0000)

Unit cell:
           periodic     x           y           z      points  spacing
  1. axis:    yes    0.000000    2.200000    2.200000    16     0.1588
  2. axis:    yes    2.200000    0.000000    2.200000    16     0.1588
  3. axis:    yes    2.200000    2.200000    0.000000    16     0.1588

  Lengths:   3.111270   3.111270   3.111270
  Angles:   60.000000  60.000000  60.000000

Effective grid spacing dv^(1/3) = 0.1732

     iter     time        total  log10-change:
                         energy  eigst   dens
iter:   1 15:46:55    -6.516707
iter:   2 15:46:57    -6.407008  -2.16  -1.36
iter:   3 15:46:58    -6.149428  -1.26  -1.41
iter:   4 15:46:59    -6.114654  -3.09  -1.92
iter:   5 15:47:01    -6.146281  -2.11  -2.10
iter:   6 15:47:02    -6.109671  -2.61  -1.98
iter:   7 15:47:04    -6.109664  -4.10  -3.23
iter:   8 15:47:05    -6.109812c -5.09  -3.06
iter:   9 15:47:06    -6.109760c -4.59  -3.01
iter:  10 15:47:08    -6.109765c -6.09  -4.15c
iter:  11 15:47:09    -6.109769c -7.01  -4.29c
iter:  12 15:47:10    -6.109766c -7.16  -4.37c
iter:  13 15:47:11    -6.109767c -8.70c -4.59c

Converged after 13 iterations.

Dipole moment: (0.000000, 0.000000, 0.000000) |e|*Ang

Energy contributions relative to reference atoms: (reference = -130134.647000)

Kinetic:        -18.829885
Potential:      +13.827832
External:        +0.000000
XC:              -0.930555
Entropy (-ST):   -0.098509
Local:           -0.127904
--------------------------
Free energy:     -6.159022
Extrapolated:    -6.109767

Showing only first 2 kpts
 Kpt  Band  Eigenvalues  Occupancy
  0     5      3.94965    2.00000
  0     6      3.95251    2.00000
  0     7      4.85106    1.99269
  0     8      4.93237    1.98359

  1     5      3.90542    2.00000
  1     6      3.90542    2.00000
  1     7      4.90763    1.98717
  1     8      4.90763    1.98717


Fermi level: 5.41187

No gap
Writing to Assignment 4/output/Rh_calculation_a=4.4.gpw (mode='')

Timing:                              incl.     excl.
-----------------------------------------------------------
Hamiltonian:                         0.053     0.000   0.0% |
 Atomic:                             0.042     0.000   0.0% |
  XC Correction:                     0.041     0.041   0.2% |
 Calculate atomic Hamiltonians:      0.000     0.000   0.0% |
 Communicate:                        0.000     0.000   0.0% |
 Initialize Hamiltonian:             0.000     0.000   0.0% |
 Poisson:                            0.000     0.000   0.0% |
 XC 3D grid:                         0.010     0.010   0.1% |
LCAO initialization:                 2.330     0.058   0.3% |
 LCAO eigensolver:                   0.249     0.004   0.0% |
  Calculate projections:             0.003     0.003   0.0% |
  DenseAtomicCorrection:             0.009     0.009   0.0% |
  Distribute overlap matrix:         0.002     0.002   0.0% |
  Orbital Layouts:                   0.028     0.028   0.1% |
  Potential matrix:                  0.169     0.169   0.8% |
  Sum over cells:                    0.033     0.033   0.2% |
 LCAO to grid:                       1.574     1.574   7.9% |--|
 Set positions (LCAO WFS):           0.450     0.061   0.3% |
  Basic WFS set positions:           0.001     0.001   0.0% |
  Basis functions set positions:     0.000     0.000   0.0% |
  P tci:                             0.121     0.121   0.6% |
  ST tci:                            0.258     0.258   1.3% ||
  mktci:                             0.008     0.008   0.0% |
PWDescriptor:                        0.017     0.017   0.1% |
SCF-cycle:                          17.173     0.960   4.8% |-|
 Davidson:                          14.687     3.226  16.1% |-----|
  Apply H:                           1.728     1.578   7.9% |--|
   HMM T:                            0.150     0.150   0.8% |
  Subspace diag:                     2.733     0.118   0.6% |
   calc_h_matrix:                    2.073     0.342   1.7% ||
    Apply H:                         1.732     1.569   7.8% |--|
     HMM T:                          0.163     0.163   0.8% |
   diagonalize:                      0.346     0.346   1.7% ||
   rotate_psi:                       0.195     0.195   1.0% |
  calc. matrices:                    5.283     1.878   9.4% |---|
   Apply H:                          3.405     3.110  15.6% |-----|
    HMM T:                           0.296     0.296   1.5% ||
  diagonalize:                       1.427     1.427   7.1% |--|
  rotate_psi:                        0.290     0.290   1.5% ||
 Density:                            0.839     0.000   0.0% |
  Atomic density matrices:           0.033     0.033   0.2% |
  Mix:                               0.018     0.018   0.1% |
  Multipole moments:                 0.001     0.001   0.0% |
  Pseudo density:                    0.788     0.672   3.4% ||
   Symmetrize density:               0.116     0.116   0.6% |
 Hamiltonian:                        0.622     0.003   0.0% |
  Atomic:                            0.498     0.005   0.0% |
   XC Correction:                    0.493     0.493   2.5% ||
  Calculate atomic Hamiltonians:     0.005     0.005   0.0% |
  Communicate:                       0.000     0.000   0.0% |
  Poisson:                           0.001     0.001   0.0% |
  XC 3D grid:                        0.115     0.115   0.6% |
 Orthonormalize:                     0.064     0.008   0.0% |
  calc_s_matrix:                     0.017     0.017   0.1% |
  inverse-cholesky:                  0.009     0.009   0.0% |
  projections:                       0.023     0.023   0.1% |
  rotate_psi_s:                      0.007     0.007   0.0% |
Set symmetry:                        0.085     0.085   0.4% |
Other:                               0.338     0.338   1.7% ||
-----------------------------------------------------------
Total:                                        19.996 100.0%

Memory usage: 265.46 MiB
Date: Tue Feb 14 15:47:11 2023
