
  ___ ___ ___ _ _ _  
 |   |   |_  | | | | 
 | | | | | . | | | | 
 |__ |  _|___|_____|  22.8.0
 |___|_|             

User:   liljav@vera55-4
Date:   Thu Feb  2 13:25:20 2023
Arch:   x86_64
Pid:    1063481
CWD:    /cephyr/users/liljav/Vera/TIF320/TIF320-Computational-materials-and-molecular-physics-Assignments
Python: 3.10.4
gpaw:   /apps/Arch/software/GPAW/22.8.0-foss-2022a/lib/python3.10/site-packages/gpaw
_gpaw:  /apps/Arch/software/GPAW/22.8.0-foss-2022a/lib/python3.10/site-packages/
        _gpaw.cpython-310-x86_64-linux-gnu.so
ase:    /apps/Arch/software/ASE/3.22.1-foss-2022a/lib/python3.10/site-packages/ase (version 3.22.1)
numpy:  /apps/Arch/software/SciPy-bundle/2022.05-foss-2022a/lib/python3.10/site-packages/numpy (version 1.22.3)
scipy:  /apps/Arch/software/SciPy-bundle/2022.05-foss-2022a/lib/python3.10/site-packages/scipy (version 1.8.1)
libxc:  5.2.3
units:  Angstrom and eV
cores: 1
OpenMP: False
OMP_NUM_THREADS: 1

Input parameters:
  h: 0.25
  nbands: 10
  occupations: {fixmagmom: False,
                name: fermi-dirac,
                width: 0.05}
  setups: {Na: 1}

System changes: positions, numbers, cell, pbc, initial_charges, initial_magmoms 

Initialize ...

species:
  Na:
    name: Sodium
    id: fa5c50181d04022fed15b2593599c257
    Z: 11.0
    valence: 1
    core: 10
    charge: 0.0
    file: /apps/Common/software/GPAW-setups/0.9.20000/Na.1.LDA.gz
    compensation charges: {type: gauss,
                           rc: 0.43,
                           lmax: 2}
    cutoffs: {filter: 2.36,
              core: 3.60}
    valence states:
      #              energy  rcut
      - 3s(1.00)    -2.819   1.349
      - 3p(0.00)    -0.774   1.349
      -  s          24.392   1.349
  
    # Using partial waves for Na as LCAO basis

Reference energy: -26392.251304  # eV

Spin-paired calculation

Convergence criteria:
 Maximum [total energy] change in last 3 cyles: 0.0005 eV / electron
 Maximum integral of absolute [dens]ity change: 0.0001 electrons / valence electron
 Maximum integral of absolute [eigenst]ate change: 4e-08 eV^2 / valence electron
 Maximum number of scf [iter]ations: 333
 (Square brackets indicate name in SCF output, whereas a 'c' in
 the SCF output indicates the quantity has converged.)

Symmetries present (total): 1

  ( 1  0  0)
  ( 0  1  0)
  ( 0  0  1)

1 k-point (Gamma)
1 k-point in the irreducible part of the Brillouin zone
       k-points in crystal coordinates                weights
   0:     0.00000000    0.00000000    0.00000000          1/1

Wave functions: Uniform real-space grid
  Kinetic energy operator: 6*3+1=19 point O(h^6) finite-difference Laplacian
  ScaLapack parameters: grid=1x1, blocksize=None
  Wavefunction extrapolation:
    Improved wavefunction reuse through dual PAW basis 

Occupation numbers: Fermi-Dirac:
  width: 0.0500  # eV
 

Eigensolver
   Davidson(niter=2) 

Densities:
  Coarse grid: 64*64*64 grid
  Fine grid: 128*128*128 grid
  Total Charge: 0.000000 

Density mixing:
  Method: separate
  Backend: pulay
  Linear mixing parameter: 0.25
  old densities: 3
  Damping of long wavelength oscillations: 1  # (no daming) 

Hamiltonian:
  XC and Coulomb potentials evaluated on a 128*128*128 grid
  Using the LDA Exchange-Correlation functional
  Interpolation: tri-quintic (5. degree polynomial)
  Poisson solver: FastPoissonSolver using
    Stencil: 6*3+1=19 point O(h^6) finite-difference Laplacian
    FFT axes: []
    FST axes: [0, 1, 2]
 

Memory estimate:
  Process memory now: 413.27 MiB
  Calculator: 163.06 MiB
    Density: 80.09 MiB
      Arrays: 50.70 MiB
      Localized functions: 17.94 MiB
      Mixer: 11.45 MiB
    Hamiltonian: 34.46 MiB
      Arrays: 33.16 MiB
      XC: 0.00 MiB
      Poisson: 0.00 MiB
      vbar: 1.29 MiB
    Wavefunctions: 48.51 MiB
      Arrays psit_nG: 19.08 MiB
      Eigensolver: 28.62 MiB
      Projections: 0.00 MiB
      Projectors: 0.81 MiB

Total number of cores used: 1

Number of atoms: 6
Number of atomic orbitals: 24
Number of bands in calculation: 10
Number of valence electrons: 6
Bands to converge: occupied

... initialized

Initializing position-dependent things.

Density initialized from atomic densities
Creating initial wave functions:
  10 bands from LCAO basis set

           .--------------------------------------.  
          /|                                      |  
         / |                                      |  
        /  |                                      |  
       /   |                                      |  
      /    |                                      |  
     /     |                                      |  
    /      |                                      |  
   /       |                                      |  
  /        |                                      |  
 *         |           Na                         |  
 |         |                                      |  
 |         |                Na                    |  
 |         |                                      |  
 |         |            Na                        |  
 |         |                    Na                |  
 |         |                                      |  
 |         |                Na                    |  
 |         |                                      |  
 |         |             Na                       |  
 |         .--------------------------------------.  
 |        /                                      /   
 |       /                                      /    
 |      /                                      /     
 |     /                                      /      
 |    /                                      /       
 |   /                                      /        
 |  /                                      /         
 | /                                      /          
 |/                                      /           
 *--------------------------------------*            

Positions:
   0 Na    11.424955    5.046215    9.661160    ( 0.0000,  0.0000,  0.0000)
   1 Na     9.091214    7.135542   10.719357    ( 0.0000,  0.0000,  0.0000)
   2 Na     6.710298    9.263471   11.516303    ( 0.0000,  0.0000,  0.0000)
   3 Na     7.680133    8.011559    5.125248    ( 0.0000,  0.0000,  0.0000)
   4 Na     9.624253    6.463545    7.292195    ( 0.0000,  0.0000,  0.0000)
   5 Na     7.055205    8.690646    8.283979    ( 0.0000,  0.0000,  0.0000)

Unit cell:
           periodic     x           y           z      points  spacing
  1. axis:    no    16.000000    0.000000    0.000000    64     0.2500
  2. axis:    no     0.000000   16.000000    0.000000    64     0.2500
  3. axis:    no     0.000000    0.000000   16.000000    64     0.2500

  Lengths:  16.000000  16.000000  16.000000
  Angles:   90.000000  90.000000  90.000000

Effective grid spacing dv^(1/3) = 0.2500

     iter     time        total  log10-change:
                         energy  eigst   dens
iter:   1 13:25:23    -5.406516
iter:   2 13:25:24    -5.266638  -0.14  -0.49
iter:   3 13:25:25    -5.251883  -0.19  -0.69
iter:   4 13:25:26    -5.253795  -0.60  -1.06
iter:   5 13:25:27    -5.255777  -1.15  -1.52
iter:   6 13:25:28    -5.256004c -1.83  -1.71
iter:   7 13:25:30    -5.256190c -2.17  -1.81
iter:   8 13:25:31    -5.256123c -3.09  -2.32
iter:   9 13:25:32    -5.256161c -3.23  -2.43
iter:  10 13:25:33    -5.256163c -4.05  -2.80
iter:  11 13:25:34    -5.256164c -4.43  -3.43
iter:  12 13:25:35    -5.256165c -4.86  -3.74
iter:  13 13:25:36    -5.256165c -5.26  -3.85
iter:  14 13:25:37    -5.256165c -5.70  -4.26c
iter:  15 13:25:38    -5.256165c -6.12  -4.48c
iter:  16 13:25:39    -5.256165c -6.55  -4.85c
iter:  17 13:25:40    -5.256165c -6.95  -5.00c
iter:  18 13:25:41    -5.256165c -7.37  -5.35c
iter:  19 13:25:42    -5.256165c -7.75c -5.36c

Converged after 19 iterations.

Dipole moment: (0.033780, -0.015136, 0.047250) |e|*Ang

Energy contributions relative to reference atoms: (reference = -26392.251304)

Kinetic:        +11.918171
Potential:      -10.919640
External:        +0.000000
XC:              -6.248119
Entropy (-ST):   -0.000011
Local:           -0.006571
--------------------------
Free energy:     -5.256170
Extrapolated:    -5.256165

 Band  Eigenvalues  Occupancy
    0     -4.15344    2.00000
    1     -3.14880    2.00000
    2     -3.14825    2.00000
    3     -1.85561    0.00001
    4     -1.75822    0.00000
    5     -1.74436    0.00000
    6     -1.55811    0.00000
    7     -0.73682    0.00000
    8     -0.67858    0.00000
    9     -0.66307    0.00000

Fermi level: -2.49038

Gap: 1.293 eV
Transition (v -> c):
  (s=0, k=0, n=2, [0.00, 0.00, 0.00]) -> (s=0, k=0, n=3, [0.00, 0.00, 0.00])

Forces in eV/Ang:
  0 Na   -0.00822    0.00390    0.00173
  1 Na   -0.00021   -0.00215   -0.02425
  2 Na   -0.00468    0.00193   -0.00957
  3 Na   -0.00024   -0.00100   -0.00519
  4 Na   -0.01186    0.01068    0.01491
  5 Na    0.01564   -0.00923    0.00965

System changes: positions 

Initializing position-dependent things.

Density initialized from wave functions
           .--------------------------------------.  
          /|                                      |  
         / |                                      |  
        /  |                                      |  
       /   |                                      |  
      /    |                                      |  
     /     |                                      |  
    /      |                                      |  
   /       |                                      |  
  /        |                                      |  
 *         |           Na                         |  
 |         |                                      |  
 |         |                Na                    |  
 |         |                                      |  
 |         |            Na                        |  
 |         |                    Na                |  
 |         |                                      |  
 |         |                Na                    |  
 |         |                                      |  
 |         |             Na                       |  
 |         .--------------------------------------.  
 |        /                                      /   
 |       /                                      /    
 |      /                                      /     
 |     /                                      /      
 |    /                                      /       
 |   /                                      /        
 |  /                                      /         
 | /                                      /          
 |/                                      /           
 *--------------------------------------*            

Positions:
   0 Na    11.345724    5.083815    9.677807    ( 0.0000,  0.0000,  0.0000)
   1 Na     9.089180    7.114847   10.485695    ( 0.0000,  0.0000,  0.0000)
   2 Na     6.665234    9.282022   11.424089    ( 0.0000,  0.0000,  0.0000)
   3 Na     7.677781    8.001946    5.075242    ( 0.0000,  0.0000,  0.0000)
   4 Na     9.509947    6.566412    7.435852    ( 0.0000,  0.0000,  0.0000)
   5 Na     7.205914    8.601692    8.376907    ( 0.0000,  0.0000,  0.0000)

Unit cell:
           periodic     x           y           z      points  spacing
  1. axis:    no    16.000000    0.000000    0.000000    64     0.2500
  2. axis:    no     0.000000   16.000000    0.000000    64     0.2500
  3. axis:    no     0.000000    0.000000   16.000000    64     0.2500

  Lengths:  16.000000  16.000000  16.000000
  Angles:   90.000000  90.000000  90.000000

Effective grid spacing dv^(1/3) = 0.2500

     iter     time        total  log10-change:
                         energy  eigst   dens
iter:   1 13:25:44    -5.251246  +0.29
iter:   2 13:25:45    -5.174611  -0.64  -0.80
iter:   3 13:25:46    -5.169106  -1.11  -1.25
iter:   4 13:25:47    -5.170412  -1.47  -1.52
iter:   5 13:25:48    -5.170854c -1.99  -1.99
iter:   6 13:25:49    -5.170967c -2.56  -2.14
iter:   7 13:25:50    -5.171005c -3.04  -2.47
iter:   8 13:25:51    -5.171014c -3.57  -2.90
iter:   9 13:25:52    -5.171018c -4.00  -3.04
iter:  10 13:25:53    -5.171019c -4.46  -3.43
iter:  11 13:25:54    -5.171020c -4.91  -3.58
iter:  12 13:25:55    -5.171020c -5.35  -4.02c
iter:  13 13:25:56    -5.171020c -5.72  -4.12c
iter:  14 13:25:57    -5.171020c -6.08  -4.36c
iter:  15 13:25:59    -5.171020c -6.44  -4.57c
iter:  16 13:26:00    -5.171020c -6.80  -4.74c
iter:  17 13:26:01    -5.171020c -7.14  -4.99c
iter:  18 13:26:02    -5.171020c -7.48c -5.30c

Converged after 18 iterations.

Dipole moment: (0.053476, -0.037673, 0.054226) |e|*Ang

Energy contributions relative to reference atoms: (reference = -26392.251304)

Kinetic:        +15.762733
Potential:      -13.869463
External:        +0.000000
XC:              -7.056834
Entropy (-ST):   -0.000024
Local:           -0.007444
--------------------------
Free energy:     -5.171032
Extrapolated:    -5.171020

 Band  Eigenvalues  Occupancy
    0     -4.27518    2.00000
    1     -3.16594    2.00000
    2     -3.10494    1.99999
    3     -1.93150    0.00002
    4     -1.68109    0.00000
    5     -1.62942    0.00000
    6     -1.61946    0.00000
    7     -0.72847    0.00000
    8     -0.69954    0.00000
    9     -0.66996    0.00000

Fermi level: -2.51203

Gap: 1.173 eV
Transition (v -> c):
  (s=0, k=0, n=2, [0.00, 0.00, 0.00]) -> (s=0, k=0, n=3, [0.00, 0.00, 0.00])

Forces in eV/Ang:
  0 Na    0.08862   -0.08015   -0.00041
  1 Na   -0.03911    0.05462    0.32818
  2 Na    0.01393   -0.00874    0.06155
  3 Na    0.00690   -0.00286    0.05359
  4 Na    0.09489   -0.09982   -0.27382
  5 Na   -0.17154    0.13773   -0.17583

System changes: positions 

Initializing position-dependent things.

Density initialized from wave functions
           .--------------------------------------.  
          /|                                      |  
         / |                                      |  
        /  |                                      |  
       /   |                                      |  
      /    |                                      |  
     /     |                                      |  
    /      |                                      |  
   /       |                                      |  
  /        |                                      |  
 *         |           Na                         |  
 |         |                                      |  
 |         |                Na                    |  
 |         |                                      |  
 |         |            Na                        |  
 |         |                    Na                |  
 |         |                                      |  
 |         |                Na                    |  
 |         |                                      |  
 |         |             Na                       |  
 |         .--------------------------------------.  
 |        /                                      /   
 |       /                                      /    
 |      /                                      /     
 |     /                                      /      
 |    /                                      /       
 |   /                                      /        
 |  /                                      /         
 | /                                      /          
 |/                                      /           
 *--------------------------------------*            

Positions:
   0 Na    11.400207    5.041733    9.674113    ( 0.0000,  0.0000,  0.0000)
   1 Na     9.072953    7.142483   10.674836    ( 0.0000,  0.0000,  0.0000)
   2 Na     6.680689    9.274380   11.469788    ( 0.0000,  0.0000,  0.0000)
   3 Na     7.681218    8.002759    5.108630    ( 0.0000,  0.0000,  0.0000)
   4 Na     9.574513    6.502163    7.288882    ( 0.0000,  0.0000,  0.0000)
   5 Na     7.101011    8.679146    8.282387    ( 0.0000,  0.0000,  0.0000)

Unit cell:
           periodic     x           y           z      points  spacing
  1. axis:    no    16.000000    0.000000    0.000000    64     0.2500
  2. axis:    no     0.000000   16.000000    0.000000    64     0.2500
  3. axis:    no     0.000000    0.000000   16.000000    64     0.2500

  Lengths:  16.000000  16.000000  16.000000
  Angles:   90.000000  90.000000  90.000000

Effective grid spacing dv^(1/3) = 0.2500

     iter     time        total  log10-change:
                         energy  eigst   dens
iter:   1 13:26:03    -5.346490  +0.42
iter:   2 13:26:04    -5.264823  -0.63  -0.83
iter:   3 13:26:05    -5.254014  -1.14  -1.21
iter:   4 13:26:06    -5.254722  -1.68  -1.53
iter:   5 13:26:07    -5.255285c -1.93  -1.78
iter:   6 13:26:08    -5.255457c -2.41  -2.13
iter:   7 13:26:09    -5.255488c -2.98  -2.34
iter:   8 13:26:10    -5.255501c -3.48  -2.74
iter:   9 13:26:11    -5.255504c -3.96  -3.01
iter:  10 13:26:13    -5.255506c -4.37  -3.25
iter:  11 13:26:14    -5.255507c -4.82  -3.57
iter:  12 13:26:15    -5.255507c -5.32  -3.93
iter:  13 13:26:16    -5.255507c -5.81  -4.26c
iter:  14 13:26:17    -5.255507c -6.26  -4.41c
iter:  15 13:26:18    -5.255507c -6.67  -4.58c
iter:  16 13:26:19    -5.255507c -7.04  -4.92c
iter:  17 13:26:20    -5.255507c -7.45c -4.93c

Converged after 17 iterations.

Dipole moment: (0.025884, -0.013261, 0.033289) |e|*Ang

Energy contributions relative to reference atoms: (reference = -26392.251304)

Kinetic:        +12.580316
Potential:      -11.431024
External:        +0.000000
XC:              -6.397958
Entropy (-ST):   -0.000012
Local:           -0.006835
--------------------------
Free energy:     -5.255513
Extrapolated:    -5.255507

 Band  Eigenvalues  Occupancy
    0     -4.17787    2.00000
    1     -3.15374    2.00000
    2     -3.13890    1.99999
    3     -1.87341    0.00001
    4     -1.73720    0.00000
    5     -1.72519    0.00000
    6     -1.57110    0.00000
    7     -0.73252    0.00000
    8     -0.68313    0.00000
    9     -0.67381    0.00000

Fermi level: -2.49508

Gap: 1.265 eV
Transition (v -> c):
  (s=0, k=0, n=2, [0.00, 0.00, 0.00]) -> (s=0, k=0, n=3, [0.00, 0.00, 0.00])

Forces in eV/Ang:
  0 Na   -0.01674    0.01022   -0.01497
  1 Na    0.00612   -0.00556    0.01381
  2 Na   -0.00407    0.00339    0.00677
  3 Na   -0.01316    0.01014   -0.02029
  4 Na    0.04087   -0.03579    0.01727
  5 Na   -0.02238    0.02076   -0.01300

System changes: positions 

Initializing position-dependent things.

Density initialized from wave functions
           .--------------------------------------.  
          /|                                      |  
         / |                                      |  
        /  |                                      |  
       /   |                                      |  
      /    |                                      |  
     /     |                                      |  
    /      |                                      |  
   /       |                                      |  
  /        |                                      |  
 *         |           Na                         |  
 |         |                                      |  
 |         |               Na                     |  
 |         |                                      |  
 |         |            Na                        |  
 |         |                    Na                |  
 |         |                                      |  
 |         |                Na                    |  
 |         |                                      |  
 |         |             Na                       |  
 |         .--------------------------------------.  
 |        /                                      /   
 |       /                                      /    
 |      /                                      /     
 |     /                                      /      
 |    /                                      /       
 |   /                                      /        
 |  /                                      /         
 | /                                      /          
 |/                                      /           
 *--------------------------------------*            

Positions:
   0 Na    11.304220    5.040212    9.660841    ( 0.0000,  0.0000,  0.0000)
   1 Na     9.032491    7.158530   10.690274    ( 0.0000,  0.0000,  0.0000)
   2 Na     6.591593    9.312275   11.383134    ( 0.0000,  0.0000,  0.0000)
   3 Na     7.643761    8.010831    5.013441    ( 0.0000,  0.0000,  0.0000)
   4 Na     9.598020    6.463599    7.259399    ( 0.0000,  0.0000,  0.0000)
   5 Na     7.105004    8.753099    8.187455    ( 0.0000,  0.0000,  0.0000)

Unit cell:
           periodic     x           y           z      points  spacing
  1. axis:    no    16.000000    0.000000    0.000000    64     0.2500
  2. axis:    no     0.000000   16.000000    0.000000    64     0.2500
  3. axis:    no     0.000000    0.000000   16.000000    64     0.2500

  Lengths:  16.000000  16.000000  16.000000
  Angles:   90.000000  90.000000  90.000000

Effective grid spacing dv^(1/3) = 0.2500

     iter     time        total  log10-change:
                         energy  eigst   dens
iter:   1 13:26:21    -5.278272  -0.06
iter:   2 13:26:22    -5.256474  -1.01  -1.10
iter:   3 13:26:23    -5.255636  -1.62  -1.55
iter:   4 13:26:24    -5.256124c -2.10  -1.82
iter:   5 13:26:25    -5.256294c -2.56  -2.21
iter:   6 13:26:27    -5.256343c -3.03  -2.44
iter:   7 13:26:28    -5.256360c -3.46  -2.72
iter:   8 13:26:29    -5.256365c -3.91  -3.10
iter:   9 13:26:30    -5.256366c -4.35  -3.28
iter:  10 13:26:31    -5.256367c -4.74  -3.47
iter:  11 13:26:32    -5.256367c -5.24  -3.96
iter:  12 13:26:33    -5.256367c -5.66  -3.98
iter:  13 13:26:34    -5.256367c -6.03  -4.17c
iter:  14 13:26:35    -5.256367c -6.42  -4.53c
iter:  15 13:26:36    -5.256367c -6.79  -4.60c
iter:  16 13:26:37    -5.256367c -7.14  -4.87c
iter:  17 13:26:38    -5.256367c -7.50c -4.93c

Converged after 17 iterations.

Dipole moment: (0.030787, -0.031117, 0.030046) |e|*Ang

Energy contributions relative to reference atoms: (reference = -26392.251304)

Kinetic:        +11.812927
Potential:      -10.837079
External:        +0.000000
XC:              -6.225573
Entropy (-ST):   -0.000012
Local:           -0.006637
--------------------------
Free energy:     -5.256373
Extrapolated:    -5.256367

 Band  Eigenvalues  Occupancy
    0     -4.15527    2.00000
    1     -3.15934    2.00000
    2     -3.13990    2.00000
    3     -1.86471    0.00001
    4     -1.77465    0.00000
    5     -1.73034    0.00000
    6     -1.55963    0.00000
    7     -0.73985    0.00000
    8     -0.69062    0.00000
    9     -0.67817    0.00000

Fermi level: -2.49465

Gap: 1.275 eV
Transition (v -> c):
  (s=0, k=0, n=2, [0.00, 0.00, 0.00]) -> (s=0, k=0, n=3, [0.00, 0.00, 0.00])

Forces in eV/Ang:
  0 Na    0.01531   -0.01583    0.00662
  1 Na   -0.03091    0.02393   -0.01910
  2 Na    0.01118   -0.00898   -0.00161
  3 Na    0.02036   -0.01406    0.02603
  4 Na   -0.03369    0.02687   -0.01834
  5 Na    0.00805   -0.01036   -0.00186

System changes: positions 

Initializing position-dependent things.

Density initialized from wave functions
           .--------------------------------------.  
          /|                                      |  
         / |                                      |  
        /  |                                      |  
       /   |                                      |  
      /    |                                      |  
     /     |                                      |  
    /      |                                      |  
   /       |                                      |  
  /        |                                      |  
 *         |           Na                         |  
 |         |                                      |  
 |         |               Na                     |  
 |         |                                      |  
 |         |            Na                        |  
 |         |                    Na                |  
 |         |                                      |  
 |         |                Na                    |  
 |         |                                      |  
 |         |             Na                       |  
 |         .--------------------------------------.  
 |        /                                      /   
 |       /                                      /    
 |      /                                      /     
 |     /                                      /      
 |    /                                      /       
 |   /                                      /        
 |  /                                      /         
 | /                                      /          
 |/                                      /           
 *--------------------------------------*            

Positions:
   0 Na    11.289250    5.016474    9.658361    ( 0.0000,  0.0000,  0.0000)
   1 Na     8.963643    7.206084   10.668924    ( 0.0000,  0.0000,  0.0000)
   2 Na     6.580028    9.310247   11.355583    ( 0.0000,  0.0000,  0.0000)
   3 Na     7.660832    7.993768    5.016801    ( 0.0000,  0.0000,  0.0000)
   4 Na     9.570507    6.476522    7.226253    ( 0.0000,  0.0000,  0.0000)
   5 Na     7.105659    8.773202    8.142240    ( 0.0000,  0.0000,  0.0000)

Unit cell:
           periodic     x           y           z      points  spacing
  1. axis:    no    16.000000    0.000000    0.000000    64     0.2500
  2. axis:    no     0.000000   16.000000    0.000000    64     0.2500
  3. axis:    no     0.000000    0.000000   16.000000    64     0.2500

  Lengths:  16.000000  16.000000  16.000000
  Angles:   90.000000  90.000000  90.000000

Effective grid spacing dv^(1/3) = 0.2500

     iter     time        total  log10-change:
                         energy  eigst   dens
iter:   1 13:26:39    -5.293228  -0.38
iter:   2 13:26:40    -5.258392  -1.45  -1.08
iter:   3 13:26:41    -5.256371  -1.88  -1.66
iter:   4 13:26:42    -5.256372c -2.25  -1.85
iter:   5 13:26:43    -5.256458c -2.68  -2.31
iter:   6 13:26:44    -5.256479c -3.31  -2.47
iter:   7 13:26:45    -5.256490c -3.76  -2.71
iter:   8 13:26:46    -5.256491c -4.29  -3.23
iter:   9 13:26:47    -5.256492c -4.65  -3.33
iter:  10 13:26:48    -5.256492c -5.15  -3.82
iter:  11 13:26:49    -5.256492c -5.54  -3.89
iter:  12 13:26:50    -5.256492c -5.96  -4.17c
iter:  13 13:26:51    -5.256492c -6.43  -4.40c
iter:  14 13:26:52    -5.256492c -6.87  -4.78c
iter:  15 13:26:53    -5.256492c -7.27  -4.82c
iter:  16 13:26:54    -5.256492c -7.67c -4.86c

Converged after 16 iterations.

Dipole moment: (0.005976, -0.013042, 0.022141) |e|*Ang

Energy contributions relative to reference atoms: (reference = -26392.251304)

Kinetic:        +12.025291
Potential:      -11.005013
External:        +0.000000
XC:              -6.270137
Entropy (-ST):   -0.000011
Local:           -0.006628
--------------------------
Free energy:     -5.256498
Extrapolated:    -5.256492

 Band  Eigenvalues  Occupancy
    0     -4.16155    2.00000
    1     -3.16474    2.00000
    2     -3.13820    1.99999
    3     -1.86476    0.00001
    4     -1.75587    0.00000
    5     -1.74763    0.00000
    6     -1.56377    0.00000
    7     -0.74439    0.00000
    8     -0.68723    0.00000
    9     -0.67876    0.00000

Fermi level: -2.49472

Gap: 1.273 eV
Transition (v -> c):
  (s=0, k=0, n=2, [0.00, 0.00, 0.00]) -> (s=0, k=0, n=3, [0.00, 0.00, 0.00])

Forces in eV/Ang:
  0 Na   -0.03006    0.02653   -0.00147
  1 Na    0.03969   -0.03767   -0.03942
  2 Na   -0.01978    0.01841    0.00040
  3 Na    0.00059    0.00165   -0.01933
  4 Na    0.00727   -0.00670    0.03533
  5 Na   -0.00599    0.00071    0.01707

System changes: positions 

Initializing position-dependent things.

Density initialized from wave functions
           .--------------------------------------.  
          /|                                      |  
         / |                                      |  
        /  |                                      |  
       /   |                                      |  
      /    |                                      |  
     /     |                                      |  
    /      |                                      |  
   /       |                                      |  
  /        |                                      |  
 *         |           Na                         |  
 |         |                                      |  
 |         |               Na                     |  
 |         |                                      |  
 |         |            Na                        |  
 |         |                   Na                 |  
 |         |                                      |  
 |         |                Na                    |  
 |         |                                      |  
 |         |             Na                       |  
 |         .--------------------------------------.  
 |        /                                      /   
 |       /                                      /    
 |      /                                      /     
 |     /                                      /      
 |    /                                      /       
 |   /                                      /        
 |  /                                      /         
 | /                                      /          
 |/                                      /           
 *--------------------------------------*            

Positions:
   0 Na    11.142577    5.034261    9.640605    ( 0.0000,  0.0000,  0.0000)
   1 Na     8.889462    7.225338   10.494123    ( 0.0000,  0.0000,  0.0000)
   2 Na     6.479863    9.363028   11.271381    ( 0.0000,  0.0000,  0.0000)
   3 Na     7.698242    7.957544    4.949587    ( 0.0000,  0.0000,  0.0000)
   4 Na     9.530785    6.478887    7.250682    ( 0.0000,  0.0000,  0.0000)
   5 Na     7.090610    8.840068    8.059737    ( 0.0000,  0.0000,  0.0000)

Unit cell:
           periodic     x           y           z      points  spacing
  1. axis:    no    16.000000    0.000000    0.000000    64     0.2500
  2. axis:    no     0.000000   16.000000    0.000000    64     0.2500
  3. axis:    no     0.000000    0.000000   16.000000    64     0.2500

  Lengths:  16.000000  16.000000  16.000000
  Angles:   90.000000  90.000000  90.000000

Effective grid spacing dv^(1/3) = 0.2500

     iter     time        total  log10-change:
                         energy  eigst   dens
iter:   1 13:26:55    -5.294918  +0.13
iter:   2 13:26:56    -5.257453  -0.83  -0.96
iter:   3 13:26:57    -5.254017  -1.40  -1.40
iter:   4 13:26:58    -5.254417  -1.89  -1.70
iter:   5 13:26:59    -5.254655c -2.31  -2.09
iter:   6 13:27:00    -5.254719c -2.88  -2.29
iter:   7 13:27:01    -5.254762c -3.23  -2.43
iter:   8 13:27:02    -5.254765c -3.81  -2.94
iter:   9 13:27:03    -5.254768c -4.15  -3.06
iter:  10 13:27:04    -5.254769c -4.75  -3.70
iter:  11 13:27:05    -5.254769c -5.19  -3.75
iter:  12 13:27:06    -5.254769c -5.59  -3.93
iter:  13 13:27:07    -5.254769c -6.08  -4.25c
iter:  14 13:27:08    -5.254769c -6.48  -4.44c
iter:  15 13:27:09    -5.254769c -6.87  -4.79c
iter:  16 13:27:09    -5.254769c -7.23  -4.89c
iter:  17 13:27:10    -5.254769c -7.58c -5.02c

Converged after 17 iterations.

Dipole moment: (0.017687, -0.033887, 0.038179) |e|*Ang

Energy contributions relative to reference atoms: (reference = -26392.251304)

Kinetic:        +13.017408
Potential:      -11.778111
External:        +0.000000
XC:              -6.487316
Entropy (-ST):   -0.000013
Local:           -0.006743
--------------------------
Free energy:     -5.254775
Extrapolated:    -5.254769

 Band  Eigenvalues  Occupancy
    0     -4.19532    2.00000
    1     -3.16597    2.00000
    2     -3.13740    1.99999
    3     -1.88372    0.00001
    4     -1.74118    0.00000
    5     -1.71814    0.00000
    6     -1.58099    0.00000
    7     -0.75326    0.00000
    8     -0.70310    0.00000
    9     -0.66221    0.00000

Fermi level: -2.50167

Gap: 1.254 eV
Transition (v -> c):
  (s=0, k=0, n=2, [0.00, 0.00, 0.00]) -> (s=0, k=0, n=3, [0.00, 0.00, 0.00])

Forces in eV/Ang:
  0 Na    0.04022   -0.03654    0.02954
  1 Na   -0.02049    0.01914    0.06690
  2 Na    0.01200   -0.00472   -0.01590
  3 Na    0.00002    0.00541   -0.00822
  4 Na   -0.01210    0.00619   -0.07179
  5 Na   -0.02460    0.01401   -0.00763

System changes: positions 

Initializing position-dependent things.

Density initialized from wave functions
           .--------------------------------------.  
          /|                                      |  
         / |                                      |  
        /  |                                      |  
       /   |                                      |  
      /    |                                      |  
     /     |                                      |  
    /      |                                      |  
   /       |                                      |  
  /        |                                      |  
 *         |           Na                         |  
 |         |                                      |  
 |         |               Na                     |  
 |         |                                      |  
 |         |            Na                        |  
 |         |                   Na                 |  
 |         |                                      |  
 |         |                Na                    |  
 |         |                                      |  
 |         |             Na                       |  
 |         .--------------------------------------.  
 |        /                                      /   
 |       /                                      /    
 |      /                                      /     
 |     /                                      /      
 |    /                                      /       
 |   /                                      /        
 |  /                                      /         
 | /                                      /          
 |/                                      /           
 *--------------------------------------*            

Positions:
   0 Na    11.139344    5.000904    9.683634    ( 0.0000,  0.0000,  0.0000)
   1 Na     8.869304    7.229322   10.529235    ( 0.0000,  0.0000,  0.0000)
   2 Na     6.450736    9.388053   11.218252    ( 0.0000,  0.0000,  0.0000)
   3 Na     7.706072    7.959659    4.894083    ( 0.0000,  0.0000,  0.0000)
   4 Na     9.510059    6.479585    7.164727    ( 0.0000,  0.0000,  0.0000)
   5 Na     7.037263    8.888092    8.033944    ( 0.0000,  0.0000,  0.0000)

Unit cell:
           periodic     x           y           z      points  spacing
  1. axis:    no    16.000000    0.000000    0.000000    64     0.2500
  2. axis:    no     0.000000   16.000000    0.000000    64     0.2500
  3. axis:    no     0.000000    0.000000   16.000000    64     0.2500

  Lengths:  16.000000  16.000000  16.000000
  Angles:   90.000000  90.000000  90.000000

Effective grid spacing dv^(1/3) = 0.2500

     iter     time        total  log10-change:
                         energy  eigst   dens
iter:   1 13:27:12    -5.300236  -0.20
iter:   2 13:27:13    -5.260823  -1.26  -1.01
iter:   3 13:27:14    -5.258147  -1.73  -1.56
iter:   4 13:27:15    -5.258282c -2.20  -1.84
iter:   5 13:27:16    -5.258402c -2.56  -2.14
iter:   6 13:27:17    -5.258446c -3.02  -2.42
iter:   7 13:27:18    -5.258455c -3.57  -2.81
iter:   8 13:27:19    -5.258458c -4.05  -3.07
iter:   9 13:27:20    -5.258459c -4.51  -3.42
iter:  10 13:27:21    -5.258460c -4.91  -3.53
iter:  11 13:27:22    -5.258460c -5.33  -3.81
iter:  12 13:27:23    -5.258460c -5.72  -4.05c
iter:  13 13:27:24    -5.258460c -6.15  -4.42c
iter:  14 13:27:24    -5.258460c -6.57  -4.50c
iter:  15 13:27:25    -5.258460c -7.00  -4.56c
iter:  16 13:27:26    -5.258460c -7.35  -4.87c
iter:  17 13:27:27    -5.258460c -7.71c -4.97c

Converged after 17 iterations.

Dipole moment: (0.007333, -0.024345, 0.024262) |e|*Ang

Energy contributions relative to reference atoms: (reference = -26392.251304)

Kinetic:        +11.803547
Potential:      -10.832064
External:        +0.000000
XC:              -6.223417
Entropy (-ST):   -0.000012
Local:           -0.006520
--------------------------
Free energy:     -5.258466
Extrapolated:    -5.258460

 Band  Eigenvalues  Occupancy
    0     -4.15897    2.00000
    1     -3.15804    2.00000
    2     -3.14590    2.00000
    3     -1.87166    0.00001
    4     -1.76405    0.00000
    5     -1.74548    0.00000
    6     -1.56213    0.00000
    7     -0.75651    0.00000
    8     -0.70711    0.00000
    9     -0.66976    0.00000

Fermi level: -2.49883

Gap: 1.274 eV
Transition (v -> c):
  (s=0, k=0, n=2, [0.00, 0.00, 0.00]) -> (s=0, k=0, n=3, [0.00, 0.00, 0.00])

Forces in eV/Ang:
  0 Na   -0.01444    0.01483   -0.01533
  1 Na   -0.00554    0.00174   -0.00667
  2 Na    0.00473    0.00177    0.00281
  3 Na   -0.01355    0.01991    0.00372
  4 Na    0.00772   -0.00716    0.03944
  5 Na    0.01647   -0.02557   -0.02828

System changes: positions 

Initializing position-dependent things.

Density initialized from wave functions
           .--------------------------------------.  
          /|                                      |  
         / |                                      |  
        /  |                                      |  
       /   |                                      |  
      /    |                                      |  
     /     |                                      |  
    /      |                                      |  
   /       |                                      |  
  /        |                                      |  
 *         |           Na                         |  
 |         |                                      |  
 |         |               Na                     |  
 |         |                                      |  
 |         |            Na                        |  
 |         |                   Na                 |  
 |         |                                      |  
 |         |                Na                    |  
 |         |                                      |  
 |         |             Na                       |  
 |         .--------------------------------------.  
 |        /                                      /   
 |       /                                      /    
 |      /                                      /     
 |     /                                      /      
 |    /                                      /       
 |   /                                      /        
 |  /                                      /         
 | /                                      /          
 |/                                      /           
 *--------------------------------------*            

Positions:
   0 Na    11.114209    5.008673    9.677643    ( 0.0000,  0.0000,  0.0000)
   1 Na     8.844638    7.238665   10.527691    ( 0.0000,  0.0000,  0.0000)
   2 Na     6.445991    9.401040   11.197440    ( 0.0000,  0.0000,  0.0000)
   3 Na     7.690209    7.991041    4.879977    ( 0.0000,  0.0000,  0.0000)
   4 Na     9.506340    6.473782    7.190503    ( 0.0000,  0.0000,  0.0000)
   5 Na     7.045293    8.864188    7.973596    ( 0.0000,  0.0000,  0.0000)

Unit cell:
           periodic     x           y           z      points  spacing
  1. axis:    no    16.000000    0.000000    0.000000    64     0.2500
  2. axis:    no     0.000000   16.000000    0.000000    64     0.2500
  3. axis:    no     0.000000    0.000000   16.000000    64     0.2500

  Lengths:  16.000000  16.000000  16.000000
  Angles:   90.000000  90.000000  90.000000

Effective grid spacing dv^(1/3) = 0.2500

     iter     time        total  log10-change:
                         energy  eigst   dens
iter:   1 13:27:29    -5.264175  -0.69
iter:   2 13:27:30    -5.260652  -1.57  -1.49
iter:   3 13:27:31    -5.260312  -2.15  -1.84
iter:   4 13:27:32    -5.260377c -2.48  -2.07
iter:   5 13:27:33    -5.260422c -3.01  -2.49
iter:   6 13:27:34    -5.260439c -3.53  -2.58
iter:   7 13:27:35    -5.260444c -3.98  -3.03
iter:   8 13:27:36    -5.260446c -4.40  -3.29
iter:   9 13:27:37    -5.260446c -4.86  -3.70
iter:  10 13:27:37    -5.260446c -5.30  -3.87
iter:  11 13:27:38    -5.260446c -5.66  -3.98
iter:  12 13:27:39    -5.260446c -6.20  -4.46c
iter:  13 13:27:40    -5.260446c -6.53  -4.49c
iter:  14 13:27:41    -5.260446c -6.89  -4.82c
iter:  15 13:27:42    -5.260446c -7.26  -5.11c
iter:  16 13:27:43    -5.260446c -7.60c -5.16c

Converged after 16 iterations.

Dipole moment: (0.018204, -0.033089, 0.007698) |e|*Ang

Energy contributions relative to reference atoms: (reference = -26392.251304)

Kinetic:        +11.980464
Potential:      -10.970475
External:        +0.000000
XC:              -6.263838
Entropy (-ST):   -0.000012
Local:           -0.006591
--------------------------
Free energy:     -5.260453
Extrapolated:    -5.260446

 Band  Eigenvalues  Occupancy
    0     -4.16531    2.00000
    1     -3.15889    2.00000
    2     -3.14531    2.00000
    3     -1.87434    0.00001
    4     -1.76088    0.00000
    5     -1.74051    0.00000
    6     -1.56575    0.00000
    7     -0.74802    0.00000
    8     -0.71005    0.00000
    9     -0.67425    0.00000

Fermi level: -2.49968

Gap: 1.271 eV
Transition (v -> c):
  (s=0, k=0, n=2, [0.00, 0.00, 0.00]) -> (s=0, k=0, n=3, [0.00, 0.00, 0.00])

Forces in eV/Ang:
  0 Na   -0.00218    0.00335   -0.00432
  1 Na   -0.00916    0.00573   -0.00242
  2 Na    0.00561    0.00111   -0.01656
  3 Na    0.00745   -0.00258   -0.00616
  4 Na   -0.00523    0.00291   -0.00151
  5 Na   -0.00047   -0.00562    0.02823

System changes: positions 

Initializing position-dependent things.

Density initialized from wave functions
           .--------------------------------------.  
          /|                                      |  
         / |                                      |  
        /  |                                      |  
       /   |                                      |  
      /    |                                      |  
     /     |                                      |  
    /      |                                      |  
   /       |                                      |  
  /        |                                      |  
 *         |           Na                         |  
 |         |                                      |  
 |         |               Na                     |  
 |         |                                      |  
 |         |                                      |  
 |         |            Na     Na                 |  
 |         |                                      |  
 |         |                Na                    |  
 |         |                                      |  
 |         |             Na                       |  
 |         .--------------------------------------.  
 |        /                                      /   
 |       /                                      /    
 |      /                                      /     
 |     /                                      /      
 |    /                                      /       
 |   /                                      /        
 |  /                                      /         
 | /                                      /          
 |/                                      /           
 *--------------------------------------*            

Positions:
   0 Na    11.064308    5.018175    9.670765    ( 0.0000,  0.0000,  0.0000)
   1 Na     8.777294    7.268113   10.511907    ( 0.0000,  0.0000,  0.0000)
   2 Na     6.438266    9.432383   11.102244    ( 0.0000,  0.0000,  0.0000)
   3 Na     7.701960    8.015149    4.821292    ( 0.0000,  0.0000,  0.0000)
   4 Na     9.478075    6.474431    7.189381    ( 0.0000,  0.0000,  0.0000)
   5 Na     7.029490    8.845559    7.972538    ( 0.0000,  0.0000,  0.0000)

Unit cell:
           periodic     x           y           z      points  spacing
  1. axis:    no    16.000000    0.000000    0.000000    64     0.2500
  2. axis:    no     0.000000   16.000000    0.000000    64     0.2500
  3. axis:    no     0.000000    0.000000   16.000000    64     0.2500

  Lengths:  16.000000  16.000000  16.000000
  Angles:   90.000000  90.000000  90.000000

Effective grid spacing dv^(1/3) = 0.2500

     iter     time        total  log10-change:
                         energy  eigst   dens
iter:   1 13:27:45    -5.278362  -0.40
iter:   2 13:27:46    -5.259418  -1.40  -1.19
iter:   3 13:27:47    -5.258264  -1.96  -1.72
iter:   4 13:27:48    -5.258337c -2.36  -1.91
iter:   5 13:27:49    -5.258410c -2.80  -2.35
iter:   6 13:27:50    -5.258432c -3.38  -2.53
iter:   7 13:27:50    -5.258440c -3.85  -2.82
iter:   8 13:27:51    -5.258442c -4.35  -3.19
iter:   9 13:27:52    -5.258442c -4.80  -3.47
iter:  10 13:27:53    -5.258443c -5.24  -3.76
iter:  11 13:27:54    -5.258443c -5.68  -4.02c
iter:  12 13:27:55    -5.258443c -6.12  -4.26c
iter:  13 13:27:56    -5.258443c -6.62  -4.58c
iter:  14 13:27:57    -5.258443c -7.09  -4.68c
iter:  15 13:27:58    -5.258443c -7.52c -4.82c

Converged after 15 iterations.

Dipole moment: (0.011261, -0.020326, 0.017442) |e|*Ang

Energy contributions relative to reference atoms: (reference = -26392.251304)

Kinetic:        +12.424822
Potential:      -11.319089
External:        +0.000000
XC:              -6.357547
Entropy (-ST):   -0.000012
Local:           -0.006623
--------------------------
Free energy:     -5.258449
Extrapolated:    -5.258443

 Band  Eigenvalues  Occupancy
    0     -4.17886    2.00000
    1     -3.16502    2.00000
    2     -3.14211    1.99999
    3     -1.87737    0.00001
    4     -1.75139    0.00000
    5     -1.73743    0.00000
    6     -1.57415    0.00000
    7     -0.75600    0.00000
    8     -0.70762    0.00000
    9     -0.67483    0.00000

Fermi level: -2.50084

Gap: 1.265 eV
Transition (v -> c):
  (s=0, k=0, n=2, [0.00, 0.00, 0.00]) -> (s=0, k=0, n=3, [0.00, 0.00, 0.00])

Forces in eV/Ang:
  0 Na   -0.00614    0.00667    0.00792
  1 Na    0.03632   -0.03655    0.00131
  2 Na   -0.03145    0.03524    0.04172
  3 Na    0.01038   -0.00496    0.03344
  4 Na   -0.01271    0.01038   -0.02577
  5 Na    0.00058   -0.00643   -0.06269

System changes: positions 

Initializing position-dependent things.

Density initialized from wave functions
           .--------------------------------------.  
          /|                                      |  
         / |                                      |  
        /  |                                      |  
       /   |                                      |  
      /    |                                      |  
     /     |                                      |  
    /      |                                      |  
   /       |                                      |  
  /        |                                      |  
 *         |          Na                          |  
 |         |                                      |  
 |         |               Na                     |  
 |         |                                      |  
 |         |                                      |  
 |         |            Na     Na                 |  
 |         |                                      |  
 |         |                Na                    |  
 |         |                                      |  
 |         |             Na                       |  
 |         .--------------------------------------.  
 |        /                                      /   
 |       /                                      /    
 |      /                                      /     
 |     /                                      /      
 |    /                                      /       
 |   /                                      /        
 |  /                                      /         
 | /                                      /          
 |/                                      /           
 *--------------------------------------*            

Positions:
   0 Na    10.962669    5.055582    9.667203    ( 0.0000,  0.0000,  0.0000)
   1 Na     8.736796    7.240341   10.479353    ( 0.0000,  0.0000,  0.0000)
   2 Na     6.359255    9.568659   11.021918    ( 0.0000,  0.0000,  0.0000)
   3 Na     7.765362    8.029855    4.797921    ( 0.0000,  0.0000,  0.0000)
   4 Na     9.395695    6.502729    7.119960    ( 0.0000,  0.0000,  0.0000)
   5 Na     6.998210    8.798864    7.875851    ( 0.0000,  0.0000,  0.0000)

Unit cell:
           periodic     x           y           z      points  spacing
  1. axis:    no    16.000000    0.000000    0.000000    64     0.2500
  2. axis:    no     0.000000   16.000000    0.000000    64     0.2500
  3. axis:    no     0.000000    0.000000   16.000000    64     0.2500

  Lengths:  16.000000  16.000000  16.000000
  Angles:   90.000000  90.000000  90.000000

Effective grid spacing dv^(1/3) = 0.2500

     iter     time        total  log10-change:
                         energy  eigst   dens
iter:   1 13:28:00    -5.370235  +0.13
iter:   2 13:28:01    -5.261299  -0.91  -0.83
iter:   3 13:28:01    -5.255272  -1.35  -1.40
iter:   4 13:28:02    -5.255571  -1.77  -1.63
iter:   5 13:28:03    -5.255871c -2.14  -2.03
iter:   6 13:28:04    -5.255935c -2.74  -2.25
iter:   7 13:28:05    -5.255962c -3.27  -2.45
iter:   8 13:28:06    -5.255965c -3.80  -2.94
iter:   9 13:28:07    -5.255969c -4.14  -3.03
iter:  10 13:28:08    -5.255970c -4.61  -3.54
iter:  11 13:28:09    -5.255970c -4.93  -3.59
iter:  12 13:28:10    -5.255970c -5.33  -4.02c
iter:  13 13:28:11    -5.255970c -5.78  -4.25c
iter:  14 13:28:12    -5.255970c -6.17  -4.28c
iter:  15 13:28:13    -5.255970c -6.53  -4.28c
iter:  16 13:28:14    -5.255970c -6.97  -4.30c
iter:  17 13:28:15    -5.255970c -7.13  -4.50c
iter:  18 13:28:16    -5.255970c -7.54c -4.70c

Converged after 18 iterations.

Dipole moment: (0.020336, -0.016092, -0.026560) |e|*Ang

Energy contributions relative to reference atoms: (reference = -26392.251304)

Kinetic:        +12.730130
Potential:      -11.559826
External:        +0.000000
XC:              -6.419662
Entropy (-ST):   -0.000012
Local:           -0.006606
--------------------------
Free energy:     -5.255976
Extrapolated:    -5.255970

 Band  Eigenvalues  Occupancy
    0     -4.18837    2.00000
    1     -3.17417    2.00000
    2     -3.13828    1.99999
    3     -1.87987    0.00001
    4     -1.76057    0.00000
    5     -1.72423    0.00000
    6     -1.58027    0.00000
    7     -0.74827    0.00000
    8     -0.70231    0.00000
    9     -0.68388    0.00000

Fermi level: -2.50240

Gap: 1.258 eV
Transition (v -> c):
  (s=0, k=0, n=2, [0.00, 0.00, 0.00]) -> (s=0, k=0, n=3, [0.00, 0.00, 0.00])

Forces in eV/Ang:
  0 Na    0.02660   -0.02583   -0.01633
  1 Na   -0.05316    0.05272    0.01662
  2 Na    0.02485   -0.02651   -0.01637
  3 Na   -0.01722    0.01283   -0.05529
  4 Na    0.04957   -0.04728    0.03049
  5 Na   -0.03311    0.03480    0.03752

System changes: positions 

Initializing position-dependent things.

Density initialized from wave functions
           .--------------------------------------.  
          /|                                      |  
         / |                                      |  
        /  |                                      |  
       /   |                                      |  
      /    |                                      |  
     /     |                                      |  
    /      |                                      |  
   /       |                                      |  
  /        |                                      |  
 *         |          Na                          |  
 |         |                                      |  
 |         |               Na                     |  
 |         |                                      |  
 |         |                                      |  
 |         |           Na      Na                 |  
 |         |                                      |  
 |         |                Na                    |  
 |         |                                      |  
 |         |             Na                       |  
 |         .--------------------------------------.  
 |        /                                      /   
 |       /                                      /    
 |      /                                      /     
 |     /                                      /      
 |    /                                      /       
 |   /                                      /        
 |  /                                      /         
 | /                                      /          
 |/                                      /           
 *--------------------------------------*            

Positions:
   0 Na    10.967370    5.035330    9.646743    ( 0.0000,  0.0000,  0.0000)
   1 Na     8.678102    7.279784   10.490020    ( 0.0000,  0.0000,  0.0000)
   2 Na     6.348426    9.595613   11.010135    ( 0.0000,  0.0000,  0.0000)
   3 Na     7.766333    8.048222    4.735881    ( 0.0000,  0.0000,  0.0000)
   4 Na     9.437037    6.448316    7.131168    ( 0.0000,  0.0000,  0.0000)
   5 Na     6.941640    8.831735    7.858145    ( 0.0000,  0.0000,  0.0000)

Unit cell:
           periodic     x           y           z      points  spacing
  1. axis:    no    16.000000    0.000000    0.000000    64     0.2500
  2. axis:    no     0.000000   16.000000    0.000000    64     0.2500
  3. axis:    no     0.000000    0.000000   16.000000    64     0.2500

  Lengths:  16.000000  16.000000  16.000000
  Angles:   90.000000  90.000000  90.000000

Effective grid spacing dv^(1/3) = 0.2500

     iter     time        total  log10-change:
                         energy  eigst   dens
iter:   1 13:28:17    -5.276447  -0.29
iter:   2 13:28:18    -5.262394  -1.25  -1.22
iter:   3 13:28:19    -5.260513  -1.83  -1.58
iter:   4 13:28:20    -5.260491c -2.14  -1.84
iter:   5 13:28:21    -5.260609c -2.50  -2.21
iter:   6 13:28:22    -5.260645c -3.10  -2.40
iter:   7 13:28:23    -5.260659c -3.58  -2.68
iter:   8 13:28:24    -5.260662c -4.04  -3.07
iter:   9 13:28:25    -5.260663c -4.47  -3.36
iter:  10 13:28:26    -5.260664c -4.93  -3.63
iter:  11 13:28:27    -5.260664c -5.39  -3.87
iter:  12 13:28:28    -5.260664c -5.82  -4.09c
iter:  13 13:28:29    -5.260664c -6.30  -4.58c
iter:  14 13:28:30    -5.260664c -6.74  -4.58c
iter:  15 13:28:31    -5.260664c -7.16  -4.64c
iter:  16 13:28:32    -5.260664c -7.48c -4.62c

Converged after 16 iterations.

Dipole moment: (0.018377, -0.009300, 0.009490) |e|*Ang

Energy contributions relative to reference atoms: (reference = -26392.251304)

Kinetic:        +11.635392
Potential:      -10.701165
External:        +0.000000
XC:              -6.188264
Entropy (-ST):   -0.000012
Local:           -0.006621
--------------------------
Free energy:     -5.260670
Extrapolated:    -5.260664

 Band  Eigenvalues  Occupancy
    0     -4.15738    2.00000
    1     -3.16214    2.00000
    2     -3.14309    1.99999
    3     -1.87638    0.00001
    4     -1.76847    0.00000
    5     -1.74558    0.00000
    6     -1.56241    0.00000
    7     -0.76123    0.00000
    8     -0.71582    0.00000
    9     -0.67495    0.00000

Fermi level: -2.50108

Gap: 1.267 eV
Transition (v -> c):
  (s=0, k=0, n=2, [0.00, 0.00, 0.00]) -> (s=0, k=0, n=3, [0.00, 0.00, 0.00])

Forces in eV/Ang:
  0 Na    0.00142   -0.00093    0.01925
  1 Na   -0.00352    0.00311   -0.01875
  2 Na    0.01008   -0.01275   -0.00472
  3 Na    0.00311   -0.00549    0.03089
  4 Na   -0.02705    0.02926   -0.01275
  5 Na    0.01586   -0.00978   -0.01546

System changes: positions 

Initializing position-dependent things.

Density initialized from wave functions
           .--------------------------------------.  
          /|                                      |  
         / |                                      |  
        /  |                                      |  
       /   |                                      |  
      /    |                                      |  
     /     |                                      |  
    /      |                                      |  
   /       |                                      |  
  /        |                                      |  
 *         |          Na                          |  
 |         |                                      |  
 |         |               Na                     |  
 |         |                                      |  
 |         |                                      |  
 |         |           Na      Na                 |  
 |         |                                      |  
 |         |                Na                    |  
 |         |                                      |  
 |         |             Na                       |  
 |         .--------------------------------------.  
 |        /                                      /   
 |       /                                      /    
 |      /                                      /     
 |     /                                      /      
 |    /                                      /       
 |   /                                      /        
 |  /                                      /         
 | /                                      /          
 |/                                      /           
 *--------------------------------------*            

Positions:
   0 Na    10.978354    5.029423    9.667690    ( 0.0000,  0.0000,  0.0000)
   1 Na     8.674326    7.289357   10.467759    ( 0.0000,  0.0000,  0.0000)
   2 Na     6.367289    9.566811   11.012295    ( 0.0000,  0.0000,  0.0000)
   3 Na     7.761845    8.041486    4.766884    ( 0.0000,  0.0000,  0.0000)
   4 Na     9.420581    6.472961    7.129413    ( 0.0000,  0.0000,  0.0000)
   5 Na     6.958012    8.831152    7.850189    ( 0.0000,  0.0000,  0.0000)

Unit cell:
           periodic     x           y           z      points  spacing
  1. axis:    no    16.000000    0.000000    0.000000    64     0.2500
  2. axis:    no     0.000000   16.000000    0.000000    64     0.2500
  3. axis:    no     0.000000    0.000000   16.000000    64     0.2500

  Lengths:  16.000000  16.000000  16.000000
  Angles:   90.000000  90.000000  90.000000

Effective grid spacing dv^(1/3) = 0.2500

     iter     time        total  log10-change:
                         energy  eigst   dens
iter:   1 13:28:33    -5.265423  -1.04
iter:   2 13:28:34    -5.262340  -2.03  -1.56
iter:   3 13:28:35    -5.261951  -2.61  -1.97
iter:   4 13:28:36    -5.261945c -3.02  -2.22
iter:   5 13:28:37    -5.261959c -3.39  -2.63
iter:   6 13:28:38    -5.261965c -3.91  -2.81
iter:   7 13:28:39    -5.261967c -4.45  -3.03
iter:   8 13:28:40    -5.261968c -4.96  -3.51
iter:   9 13:28:41    -5.261968c -5.32  -3.65
iter:  10 13:28:42    -5.261968c -5.78  -4.25c
iter:  11 13:28:43    -5.261968c -6.16  -4.24c
iter:  12 13:28:44    -5.261968c -6.57  -4.53c
iter:  13 13:28:45    -5.261968c -7.01  -4.71c
iter:  14 13:28:46    -5.261968c -7.45c -5.07c

Converged after 14 iterations.

Dipole moment: (0.013584, -0.007687, -0.004450) |e|*Ang

Energy contributions relative to reference atoms: (reference = -26392.251304)

Kinetic:        +12.116970
Potential:      -11.079130
External:        +0.000000
XC:              -6.293165
Entropy (-ST):   -0.000012
Local:           -0.006637
--------------------------
Free energy:     -5.261974
Extrapolated:    -5.261968

 Band  Eigenvalues  Occupancy
    0     -4.17166    2.00000
    1     -3.15946    2.00000
    2     -3.14843    2.00000
    3     -1.87829    0.00001
    4     -1.75569    0.00000
    5     -1.74364    0.00000
    6     -1.57064    0.00000
    7     -0.75962    0.00000
    8     -0.71022    0.00000
    9     -0.67821    0.00000

Fermi level: -2.50226

Gap: 1.270 eV
Transition (v -> c):
  (s=0, k=0, n=2, [0.00, 0.00, 0.00]) -> (s=0, k=0, n=3, [0.00, 0.00, 0.00])

Forces in eV/Ang:
  0 Na   -0.01541    0.01495   -0.00041
  1 Na    0.01830   -0.01845   -0.00735
  2 Na   -0.00545    0.00322   -0.00202
  3 Na   -0.00366    0.00120   -0.01196
  4 Na    0.01072   -0.00776    0.01577
  5 Na   -0.00450    0.00825    0.00581

System changes: positions 

Initializing position-dependent things.

Density initialized from wave functions
           .--------------------------------------.  
          /|                                      |  
         / |                                      |  
        /  |                                      |  
       /   |                                      |  
      /    |                                      |  
     /     |                                      |  
    /      |                                      |  
   /       |                                      |  
  /        |                                      |  
 *         |          Na                          |  
 |         |                                      |  
 |         |               Na                     |  
 |         |                                      |  
 |         |                                      |  
 |         |           Na      Na                 |  
 |         |                                      |  
 |         |                Na                    |  
 |         |                                      |  
 |         |             Na                       |  
 |         .--------------------------------------.  
 |        /                                      /   
 |       /                                      /    
 |      /                                      /     
 |     /                                      /      
 |    /                                      /       
 |   /                                      /        
 |  /                                      /         
 | /                                      /          
 |/                                      /           
 *--------------------------------------*            

Positions:
   0 Na    10.944770    5.048377    9.701182    ( 0.0000,  0.0000,  0.0000)
   1 Na     8.665045    7.282505   10.393059    ( 0.0000,  0.0000,  0.0000)
   2 Na     6.368181    9.559284   10.991035    ( 0.0000,  0.0000,  0.0000)
   3 Na     7.761451    8.037968    4.755062    ( 0.0000,  0.0000,  0.0000)
   4 Na     9.428913    6.471529    7.155237    ( 0.0000,  0.0000,  0.0000)
   5 Na     6.924907    8.880859    7.816831    ( 0.0000,  0.0000,  0.0000)

Unit cell:
           periodic     x           y           z      points  spacing
  1. axis:    no    16.000000    0.000000    0.000000    64     0.2500
  2. axis:    no     0.000000   16.000000    0.000000    64     0.2500
  3. axis:    no     0.000000    0.000000   16.000000    64     0.2500

  Lengths:  16.000000  16.000000  16.000000
  Angles:   90.000000  90.000000  90.000000

Effective grid spacing dv^(1/3) = 0.2500

     iter     time        total  log10-change:
                         energy  eigst   dens
iter:   1 13:28:47    -5.261813  -0.59
iter:   2 13:28:48    -5.261493  -1.48  -1.62
iter:   3 13:28:49    -5.260721c -2.17  -1.78
iter:   4 13:28:50    -5.260788c -2.71  -2.21
iter:   5 13:28:51    -5.260833c -3.07  -2.44
iter:   6 13:28:52    -5.260849c -3.54  -2.67
iter:   7 13:28:53    -5.260856c -4.01  -2.81
iter:   8 13:28:54    -5.260857c -4.43  -3.37
iter:   9 13:28:55    -5.260858c -4.80  -3.58
iter:  10 13:28:56    -5.260858c -5.25  -3.91
iter:  11 13:28:57    -5.260858c -5.67  -3.99
iter:  12 13:28:58    -5.260858c -5.98  -4.10c
iter:  13 13:28:59    -5.260858c -6.47  -4.67c
iter:  14 13:29:00    -5.260858c -6.84  -4.64c
iter:  15 13:29:01    -5.260858c -7.21  -4.77c
iter:  16 13:29:02    -5.260858c -7.62c -5.01c

Converged after 16 iterations.

Dipole moment: (0.033442, -0.029199, 0.002805) |e|*Ang

Energy contributions relative to reference atoms: (reference = -26392.251304)

Kinetic:        +12.425771
Potential:      -11.322617
External:        +0.000000
XC:              -6.357283
Entropy (-ST):   -0.000012
Local:           -0.006724
--------------------------
Free energy:     -5.260864
Extrapolated:    -5.260858

 Band  Eigenvalues  Occupancy
    0     -4.17976    2.00000
    1     -3.16943    2.00000
    2     -3.14197    1.99999
    3     -1.87856    0.00001
    4     -1.75773    0.00000
    5     -1.73531    0.00000
    6     -1.57538    0.00000
    7     -0.75108    0.00000
    8     -0.71875    0.00000
    9     -0.67066    0.00000

Fermi level: -2.50234

Gap: 1.263 eV
Transition (v -> c):
  (s=0, k=0, n=2, [0.00, 0.00, 0.00]) -> (s=0, k=0, n=3, [0.00, 0.00, 0.00])

Forces in eV/Ang:
  0 Na    0.01530   -0.01457    0.00099
  1 Na   -0.01426    0.01458    0.02969
  2 Na   -0.00626    0.00452    0.00300
  3 Na    0.00696   -0.00783    0.00064
  4 Na   -0.00913    0.00930   -0.03573
  5 Na    0.00819   -0.00455    0.00087

System changes: positions 

Initializing position-dependent things.

Density initialized from wave functions
           .--------------------------------------.  
          /|                                      |  
         / |                                      |  
        /  |                                      |  
       /   |                                      |  
      /    |                                      |  
     /     |                                      |  
    /      |                                      |  
   /       |                                      |  
  /        |                                      |  
 *         |          Na                          |  
 |         |                                      |  
 |         |               Na                     |  
 |         |                                      |  
 |         |                                      |  
 |         |           Na      Na                 |  
 |         |                                      |  
 |         |                Na                    |  
 |         |                                      |  
 |         |             Na                       |  
 |         .--------------------------------------.  
 |        /                                      /   
 |       /                                      /    
 |      /                                      /     
 |     /                                      /      
 |    /                                      /       
 |   /                                      /        
 |  /                                      /         
 | /                                      /          
 |/                                      /           
 *--------------------------------------*            

Positions:
   0 Na    10.972088    5.037874    9.678190    ( 0.0000,  0.0000,  0.0000)
   1 Na     8.689811    7.277533   10.460698    ( 0.0000,  0.0000,  0.0000)
   2 Na     6.366940    9.555853   11.014303    ( 0.0000,  0.0000,  0.0000)
   3 Na     7.756192    8.035259    4.762291    ( 0.0000,  0.0000,  0.0000)
   4 Na     9.429183    6.473791    7.135524    ( 0.0000,  0.0000,  0.0000)
   5 Na     6.958850    8.848247    7.855152    ( 0.0000,  0.0000,  0.0000)

Unit cell:
           periodic     x           y           z      points  spacing
  1. axis:    no    16.000000    0.000000    0.000000    64     0.2500
  2. axis:    no     0.000000   16.000000    0.000000    64     0.2500
  3. axis:    no     0.000000    0.000000   16.000000    64     0.2500

  Lengths:  16.000000  16.000000  16.000000
  Angles:   90.000000  90.000000  90.000000

Effective grid spacing dv^(1/3) = 0.2500

     iter     time        total  log10-change:
                         energy  eigst   dens
iter:   1 13:29:03    -5.264586  -0.66
iter:   2 13:29:04    -5.262892  -1.57  -1.56
iter:   3 13:29:05    -5.262447c -2.27  -1.84
iter:   4 13:29:06    -5.262467c -2.70  -2.16
iter:   5 13:29:07    -5.262506c -3.15  -2.53
iter:   6 13:29:08    -5.262520c -3.68  -2.69
iter:   7 13:29:08    -5.262526c -4.10  -2.99
iter:   8 13:29:09    -5.262527c -4.51  -3.34
iter:   9 13:29:10    -5.262527c -4.97  -3.70
iter:  10 13:29:11    -5.262527c -5.43  -3.91
iter:  11 13:29:12    -5.262527c -5.87  -4.17c
iter:  12 13:29:13    -5.262527c -6.29  -4.45c
iter:  13 13:29:14    -5.262527c -6.70  -4.68c
iter:  14 13:29:15    -5.262527c -7.13  -5.07c
iter:  15 13:29:16    -5.262527c -7.52c -5.22c

Converged after 15 iterations.

Dipole moment: (0.019071, -0.015908, -0.003092) |e|*Ang

Energy contributions relative to reference atoms: (reference = -26392.251304)

Kinetic:        +12.131289
Potential:      -11.091707
External:        +0.000000
XC:              -6.295492
Entropy (-ST):   -0.000012
Local:           -0.006611
--------------------------
Free energy:     -5.262533
Extrapolated:    -5.262527

 Band  Eigenvalues  Occupancy
    0     -4.17142    2.00000
    1     -3.15591    2.00000
    2     -3.15325    2.00000
    3     -1.87650    0.00001
    4     -1.75804    0.00000
    5     -1.74324    0.00000
    6     -1.57068    0.00000
    7     -0.75706    0.00000
    8     -0.71334    0.00000
    9     -0.67813    0.00000

Fermi level: -2.50203

Gap: 1.277 eV
Transition (v -> c):
  (s=0, k=0, n=2, [0.00, 0.00, 0.00]) -> (s=0, k=0, n=3, [0.00, 0.00, 0.00])

Forces in eV/Ang:
  0 Na    0.00036   -0.00016   -0.00101
  1 Na   -0.00161    0.00132    0.00023
  2 Na   -0.00139    0.00037    0.00086
  3 Na   -0.00024   -0.00110    0.00062
  4 Na    0.00115    0.00059    0.00188
  5 Na    0.00276    0.00015   -0.00252

System changes: positions 

Initializing position-dependent things.

Density initialized from wave functions
           .--------------------------------------.  
          /|                                      |  
         / |                                      |  
        /  |                                      |  
       /   |                                      |  
      /    |                                      |  
     /     |                                      |  
    /      |                                      |  
   /       |                                      |  
  /        |                                      |  
 *         |          Na                          |  
 |         |                                      |  
 |         |               Na                     |  
 |         |                                      |  
 |         |                                      |  
 |         |            Na     Na                 |  
 |         |                                      |  
 |         |                Na                    |  
 |         |                                      |  
 |         |             Na                       |  
 |         .--------------------------------------.  
 |        /                                      /   
 |       /                                      /    
 |      /                                      /     
 |     /                                      /      
 |    /                                      /       
 |   /                                      /        
 |  /                                      /         
 | /                                      /          
 |/                                      /           
 *--------------------------------------*            

Positions:
   0 Na    10.977600    5.037210    9.677960    ( 0.0000,  0.0000,  0.0000)
   1 Na     8.694522    7.277823   10.464550    ( 0.0000,  0.0000,  0.0000)
   2 Na     6.366182    9.547291   11.022561    ( 0.0000,  0.0000,  0.0000)
   3 Na     7.751988    8.028244    4.766247    ( 0.0000,  0.0000,  0.0000)
   4 Na     9.435954    6.476594    7.141213    ( 0.0000,  0.0000,  0.0000)
   5 Na     6.970858    8.853053    7.857519    ( 0.0000,  0.0000,  0.0000)

Unit cell:
           periodic     x           y           z      points  spacing
  1. axis:    no    16.000000    0.000000    0.000000    64     0.2500
  2. axis:    no     0.000000   16.000000    0.000000    64     0.2500
  3. axis:    no     0.000000    0.000000   16.000000    64     0.2500

  Lengths:  16.000000  16.000000  16.000000
  Angles:   90.000000  90.000000  90.000000

Effective grid spacing dv^(1/3) = 0.2500

     iter     time        total  log10-change:
                         energy  eigst   dens
iter:   1 13:29:17    -5.262895  -1.98
iter:   2 13:29:18    -5.262569  -2.96  -2.03
iter:   3 13:29:19    -5.262552c -3.59  -2.54
iter:   4 13:29:20    -5.262556c -4.12  -2.83
iter:   5 13:29:21    -5.262558c -4.64  -3.18
iter:   6 13:29:22    -5.262558c -5.07  -3.33
iter:   7 13:29:23    -5.262558c -5.55  -3.85
iter:   8 13:29:24    -5.262558c -6.04  -4.18c
iter:   9 13:29:25    -5.262558c -6.46  -4.36c
iter:  10 13:29:26    -5.262558c -6.96  -4.88c
iter:  11 13:29:27    -5.262558c -7.41c -4.92c

Converged after 11 iterations.

Dipole moment: (0.017793, -0.017252, -0.002982) |e|*Ang

Energy contributions relative to reference atoms: (reference = -26392.251304)

Kinetic:        +12.136519
Potential:      -11.095450
External:        +0.000000
XC:              -6.297045
Entropy (-ST):   -0.000012
Local:           -0.006577
--------------------------
Free energy:     -5.262564
Extrapolated:    -5.262558

 Band  Eigenvalues  Occupancy
    0     -4.17169    2.00000
    1     -3.15563    2.00000
    2     -3.15304    2.00000
    3     -1.87691    0.00001
    4     -1.75749    0.00000
    5     -1.74258    0.00000
    6     -1.57082    0.00000
    7     -0.75679    0.00000
    8     -0.71492    0.00000
    9     -0.67841    0.00000

Fermi level: -2.50204

Gap: 1.276 eV
Transition (v -> c):
  (s=0, k=0, n=2, [0.00, 0.00, 0.00]) -> (s=0, k=0, n=3, [0.00, 0.00, 0.00])

Forces in eV/Ang:
  0 Na    0.00050   -0.00016    0.00056
  1 Na   -0.00078    0.00039    0.00053
  2 Na   -0.00091    0.00051   -0.00199
  3 Na    0.00087   -0.00154    0.00025
  4 Na    0.00034    0.00049   -0.00102
  5 Na    0.00057    0.00141    0.00118

System changes: positions 

Initializing position-dependent things.

Density initialized from wave functions
           .--------------------------------------.  
          /|                                      |  
         / |                                      |  
        /  |                                      |  
       /   |                                      |  
      /    |                                      |  
     /     |                                      |  
    /      |                                      |  
   /       |                                      |  
  /        |                                      |  
 *         |          Na                          |  
 |         |                                      |  
 |         |               Na                     |  
 |         |                                      |  
 |         |                                      |  
 |         |            Na     Na                 |  
 |         |                                      |  
 |         |                Na                    |  
 |         |                                      |  
 |         |             Na                       |  
 |         .--------------------------------------.  
 |        /                                      /   
 |       /                                      /    
 |      /                                      /     
 |     /                                      /      
 |    /                                      /       
 |   /                                      /        
 |  /                                      /         
 | /                                      /          
 |/                                      /           
 *--------------------------------------*            

Positions:
   0 Na    10.963994    5.043085    9.692382    ( 0.0000,  0.0000,  0.0000)
   1 Na     8.666159    7.289677   10.447023    ( 0.0000,  0.0000,  0.0000)
   2 Na     6.334380    9.558836   11.000291    ( 0.0000,  0.0000,  0.0000)
   3 Na     7.763750    7.995171    4.754807    ( 0.0000,  0.0000,  0.0000)
   4 Na     9.450903    6.487990    7.138837    ( 0.0000,  0.0000,  0.0000)
   5 Na     6.982557    8.898731    7.833407    ( 0.0000,  0.0000,  0.0000)

Unit cell:
           periodic     x           y           z      points  spacing
  1. axis:    no    16.000000    0.000000    0.000000    64     0.2500
  2. axis:    no     0.000000   16.000000    0.000000    64     0.2500
  3. axis:    no     0.000000    0.000000   16.000000    64     0.2500

  Lengths:  16.000000  16.000000  16.000000
  Angles:   90.000000  90.000000  90.000000

Effective grid spacing dv^(1/3) = 0.2500

     iter     time        total  log10-change:
                         energy  eigst   dens
iter:   1 13:29:28    -5.264611  -0.87
iter:   2 13:29:29    -5.262517  -1.81  -1.58
iter:   3 13:29:30    -5.262416c -2.45  -2.00
iter:   4 13:29:31    -5.262477c -2.90  -2.24
iter:   5 13:29:32    -5.262499c -3.40  -2.66
iter:   6 13:29:33    -5.262509c -3.87  -2.79
iter:   7 13:29:34    -5.262511c -4.33  -3.26
iter:   8 13:29:35    -5.262511c -4.76  -3.52
iter:   9 13:29:36    -5.262512c -5.20  -3.89
iter:  10 13:29:37    -5.262512c -5.64  -4.06c
iter:  11 13:29:38    -5.262512c -6.04  -4.17c
iter:  12 13:29:39    -5.262512c -6.54  -4.67c
iter:  13 13:29:40    -5.262512c -6.92  -4.78c
iter:  14 13:29:41    -5.262512c -7.31  -5.04c
iter:  15 13:29:42    -5.262512c -7.69c -5.22c

Converged after 15 iterations.

Dipole moment: (0.012444, -0.018583, 0.001150) |e|*Ang

Energy contributions relative to reference atoms: (reference = -26392.251304)

Kinetic:        +12.055081
Potential:      -11.031913
External:        +0.000000
XC:              -6.279102
Entropy (-ST):   -0.000012
Local:           -0.006571
--------------------------
Free energy:     -5.262518
Extrapolated:    -5.262512

 Band  Eigenvalues  Occupancy
    0     -4.16954    2.00000
    1     -3.15744    2.00000
    2     -3.15151    2.00000
    3     -1.87693    0.00001
    4     -1.75914    0.00000
    5     -1.74447    0.00000
    6     -1.56959    0.00000
    7     -0.75915    0.00000
    8     -0.72024    0.00000
    9     -0.67384    0.00000

Fermi level: -2.50221

Gap: 1.275 eV
Transition (v -> c):
  (s=0, k=0, n=2, [0.00, 0.00, 0.00]) -> (s=0, k=0, n=3, [0.00, 0.00, 0.00])

Forces in eV/Ang:
  0 Na   -0.00289    0.00363    0.00159
  1 Na    0.00143   -0.00176    0.00115
  2 Na    0.00002   -0.00011   -0.00390
  3 Na   -0.00374    0.00548   -0.00075
  4 Na   -0.00140   -0.00008    0.00527
  5 Na    0.00414   -0.00596   -0.00273

System changes: positions 

Initializing position-dependent things.

Density initialized from wave functions
           .--------------------------------------.  
          /|                                      |  
         / |                                      |  
        /  |                                      |  
       /   |                                      |  
      /    |                                      |  
     /     |                                      |  
    /      |                                      |  
   /       |                                      |  
  /        |                                      |  
 *         |          Na                          |  
 |         |                                      |  
 |         |               Na                     |  
 |         |                                      |  
 |         |                                      |  
 |         |            Na     Na                 |  
 |         |                                      |  
 |         |                Na                    |  
 |         |                                      |  
 |         |             Na                       |  
 |         .--------------------------------------.  
 |        /                                      /   
 |       /                                      /    
 |      /                                      /     
 |     /                                      /      
 |    /                                      /       
[...]
External:        +0.000000
XC:              -6.281702
Entropy (-ST):   -0.000012
Local:           -0.006545
--------------------------
Free energy:     -5.265167
Extrapolated:    -5.265161

 Band  Eigenvalues  Occupancy
    0     -4.17557    2.00000
    1     -3.16031    2.00000
    2     -3.15757    2.00000
    3     -1.88528    0.00001
    4     -1.76072    0.00000
    5     -1.75006    0.00000
    6     -1.57516    0.00000
    7     -0.76597    0.00000
    8     -0.74766    0.00000
    9     -0.71571    0.00000

Fermi level: -2.50830

Gap: 1.272 eV
Transition (v -> c):
  (s=0, k=0, n=2, [0.00, 0.00, 0.00]) -> (s=0, k=0, n=3, [0.00, 0.00, 0.00])

Forces in eV/Ang:
  0 Na    0.00091   -0.00031    0.00010
  1 Na   -0.00036    0.00042   -0.00187
  2 Na    0.00061   -0.00067    0.00074
  3 Na   -0.00057    0.00133    0.00187
  4 Na   -0.00121    0.00053   -0.00015
  5 Na    0.00050   -0.00048   -0.00144

System changes: positions 

Initializing position-dependent things.

Density initialized from wave functions
           .--------------------------------------.  
          /|                                      |  
         / |                                      |  
        /  |                                      |  
       /   |                                      |  
      /    |                                      |  
     /     |                                      |  
    /      |                                      |  
   /       |                                      |  
  /        |                                      |  
 *         |                                      |  
 |         |         Na                           |  
 |         |             Na                       |  
 |         |                                      |  
 |         |                  Na                  |  
 |         |           Na                         |  
 |         |                                      |  
 |         |                Na                    |  
 |         |                                      |  
 |         |             Na                       |  
 |         .--------------------------------------.  
 |        /                                      /   
 |       /                                      /    
 |      /                                      /     
 |     /                                      /      
 |    /                                      /       
 |   /                                      /        
 |  /                                      /         
 | /                                      /          
 |/                                      /           
 *--------------------------------------*            

Positions:
   0 Na    10.447733    5.513818   10.287891    ( 0.0000,  0.0000,  0.0000)
   1 Na     8.045793    7.768926   10.501119    ( 0.0000,  0.0000,  0.0000)
   2 Na     5.637680   10.024083   10.478074    ( 0.0000,  0.0000,  0.0000)
   3 Na     7.995875    7.963959    4.683262    ( 0.0000,  0.0000,  0.0000)
   4 Na     9.290663    6.671994    7.424159    ( 0.0000,  0.0000,  0.0000)
   5 Na     6.745578    9.068734    7.522041    ( 0.0000,  0.0000,  0.0000)

Unit cell:
           periodic     x           y           z      points  spacing
  1. axis:    no    16.000000    0.000000    0.000000    64     0.2500
  2. axis:    no     0.000000   16.000000    0.000000    64     0.2500
  3. axis:    no     0.000000    0.000000   16.000000    64     0.2500

  Lengths:  16.000000  16.000000  16.000000
  Angles:   90.000000  90.000000  90.000000

Effective grid spacing dv^(1/3) = 0.2500

     iter     time        total  log10-change:
                         energy  eigst   dens
iter:   1 13:35:10    -5.265239  -2.13
iter:   2 13:35:11    -5.265175  -3.05  -2.30
iter:   3 13:35:12    -5.265173c -3.69  -2.66
iter:   4 13:35:13    -5.265176c -4.13  -2.87
iter:   5 13:35:14    -5.265177c -4.63  -3.34
iter:   6 13:35:14    -5.265178c -5.12  -3.47
iter:   7 13:35:15    -5.265178c -5.55  -3.81
iter:   8 13:35:16    -5.265178c -5.97  -4.16c
iter:   9 13:35:17    -5.265178c -6.41  -4.49c
iter:  10 13:35:18    -5.265178c -6.81  -4.67c
iter:  11 13:35:19    -5.265178c -7.32  -5.04c
iter:  12 13:35:19    -5.265178c -7.70c -5.08c

Converged after 12 iterations.

Dipole moment: (0.002742, -0.004604, -0.017715) |e|*Ang

Energy contributions relative to reference atoms: (reference = -26392.251304)

Kinetic:        +12.097356
Potential:      -11.069411
External:        +0.000000
XC:              -6.286589
Entropy (-ST):   -0.000012
Local:           -0.006528
--------------------------
Free energy:     -5.265184
Extrapolated:    -5.265178

 Band  Eigenvalues  Occupancy
    0     -4.17628    2.00000
    1     -3.16033    2.00000
    2     -3.15764    2.00000
    3     -1.88563    0.00001
    4     -1.76129    0.00000
    5     -1.74858    0.00000
    6     -1.57557    0.00000
    7     -0.76576    0.00000
    8     -0.74815    0.00000
    9     -0.71797    0.00000

Fermi level: -2.50846

Gap: 1.272 eV
Transition (v -> c):
  (s=0, k=0, n=2, [0.00, 0.00, 0.00]) -> (s=0, k=0, n=3, [0.00, 0.00, 0.00])

Forces in eV/Ang:
  0 Na   -0.00078    0.00131   -0.00095
  1 Na    0.00008   -0.00070   -0.00011
  2 Na    0.00077   -0.00035    0.00060
  3 Na    0.00060    0.00047   -0.00201
  4 Na    0.00038   -0.00056    0.00039
  5 Na   -0.00084    0.00038    0.00130

System changes: positions 

Initializing position-dependent things.

Density initialized from wave functions
           .--------------------------------------.  
          /|                                      |  
         / |                                      |  
        /  |                                      |  
       /   |                                      |  
      /    |                                      |  
     /     |                                      |  
    /      |                                      |  
   /       |                                      |  
  /        |                                      |  
 *         |                                      |  
 |         |         Na                           |  
 |         |             Na                       |  
 |         |                                      |  
 |         |                  Na                  |  
 |         |           Na                         |  
 |         |                                      |  
 |         |                Na                    |  
 |         |                                      |  
 |         |             Na                       |  
 |         .--------------------------------------.  
 |        /                                      /   
 |       /                                      /    
 |      /                                      /     
 |     /                                      /      
 |    /                                      /       
 |   /                                      /        
 |  /                                      /         
 | /                                      /          
 |/                                      /           
 *--------------------------------------*            

Positions:
   0 Na    10.450737    5.505998   10.273576    ( 0.0000,  0.0000,  0.0000)
   1 Na     8.057794    7.763071   10.495459    ( 0.0000,  0.0000,  0.0000)
   2 Na     5.646778   10.012880   10.495526    ( 0.0000,  0.0000,  0.0000)
   3 Na     7.988631    7.975349    4.681957    ( 0.0000,  0.0000,  0.0000)
   4 Na     9.293606    6.673172    7.414124    ( 0.0000,  0.0000,  0.0000)
   5 Na     6.743648    9.070760    7.530253    ( 0.0000,  0.0000,  0.0000)

Unit cell:
           periodic     x           y           z      points  spacing
  1. axis:    no    16.000000    0.000000    0.000000    64     0.2500
  2. axis:    no     0.000000   16.000000    0.000000    64     0.2500
  3. axis:    no     0.000000    0.000000   16.000000    64     0.2500

  Lengths:  16.000000  16.000000  16.000000
  Angles:   90.000000  90.000000  90.000000

Effective grid spacing dv^(1/3) = 0.2500

     iter     time        total  log10-change:
                         energy  eigst   dens
iter:   1 13:35:20    -5.265167  -1.61
iter:   2 13:35:21    -5.265153  -2.49  -2.16
iter:   3 13:35:22    -5.265169c -3.10  -2.41
iter:   4 13:35:23    -5.265183c -3.53  -2.62
iter:   5 13:35:24    -5.265187c -4.01  -3.12
iter:   6 13:35:25    -5.265189c -4.44  -3.23
iter:   7 13:35:25    -5.265190c -4.86  -3.69
iter:   8 13:35:26    -5.265190c -5.28  -3.98
iter:   9 13:35:27    -5.265190c -5.66  -4.13c
iter:  10 13:35:28    -5.265190c -6.09  -4.57c
iter:  11 13:35:29    -5.265190c -6.47  -4.57c
iter:  12 13:35:29    -5.265190c -6.82  -4.75c
iter:  13 13:35:30    -5.265190c -7.23  -5.03c
iter:  14 13:35:31    -5.265190c -7.56c -5.16c

Converged after 14 iterations.

Dipole moment: (0.002002, -0.004639, -0.017292) |e|*Ang

Energy contributions relative to reference atoms: (reference = -26392.251304)

Kinetic:        +12.107046
Potential:      -11.077103
External:        +0.000000
XC:              -6.288619
Entropy (-ST):   -0.000012
Local:           -0.006508
--------------------------
Free energy:     -5.265196
Extrapolated:    -5.265190

 Band  Eigenvalues  Occupancy
    0     -4.17647    2.00000
    1     -3.16067    2.00000
    2     -3.15738    2.00000
    3     -1.88537    0.00001
    4     -1.76195    0.00000
    5     -1.74791    0.00000
    6     -1.57567    0.00000
    7     -0.76579    0.00000
    8     -0.74846    0.00000
    9     -0.71855    0.00000

Fermi level: -2.50836

Gap: 1.272 eV
Transition (v -> c):
  (s=0, k=0, n=2, [0.00, 0.00, 0.00]) -> (s=0, k=0, n=3, [0.00, 0.00, 0.00])

Forces in eV/Ang:
  0 Na    0.00104   -0.00015   -0.00039
  1 Na   -0.00115    0.00004    0.00165
  2 Na   -0.00021    0.00029   -0.00045
  3 Na    0.00023    0.00061   -0.00018
  4 Na   -0.00118    0.00089   -0.00091
  5 Na    0.00035   -0.00049   -0.00096

System changes: positions 

Initializing position-dependent things.

Density initialized from wave functions
           .--------------------------------------.  
          /|                                      |  
         / |                                      |  
        /  |                                      |  
       /   |                                      |  
      /    |                                      |  
     /     |                                      |  
    /      |                                      |  
   /       |                                      |  
  /        |                                      |  
 *         |                                      |  
 |         |         Na                           |  
 |         |             Na                       |  
 |         |                                      |  
 |         |                  Na                  |  
 |         |           Na                         |  
 |         |                                      |  
 |         |                Na                    |  
 |         |                                      |  
 |         |             Na                       |  
 |         .--------------------------------------.  
 |        /                                      /   
 |       /                                      /    
 |      /                                      /     
 |     /                                      /      
 |    /                                      /       
 |   /                                      /        
 |  /                                      /         
 | /                                      /          
 |/                                      /           
 *--------------------------------------*            

Positions:
   0 Na    10.451486    5.510929   10.274178    ( 0.0000,  0.0000,  0.0000)
   1 Na     8.054072    7.765700   10.499039    ( 0.0000,  0.0000,  0.0000)
   2 Na     5.642621   10.014636   10.492631    ( 0.0000,  0.0000,  0.0000)
   3 Na     7.987375    7.974780    4.680559    ( 0.0000,  0.0000,  0.0000)
   4 Na     9.289442    6.675400    7.415430    ( 0.0000,  0.0000,  0.0000)
   5 Na     6.742119    9.071152    7.528399    ( 0.0000,  0.0000,  0.0000)

Unit cell:
           periodic     x           y           z      points  spacing
  1. axis:    no    16.000000    0.000000    0.000000    64     0.2500
  2. axis:    no     0.000000   16.000000    0.000000    64     0.2500
  3. axis:    no     0.000000    0.000000   16.000000    64     0.2500

  Lengths:  16.000000  16.000000  16.000000
  Angles:   90.000000  90.000000  90.000000

Effective grid spacing dv^(1/3) = 0.2500

     iter     time        total  log10-change:
                         energy  eigst   dens
iter:   1 13:35:32    -5.265315  -2.58
iter:   2 13:35:33    -5.265205  -3.58  -2.30
iter:   3 13:35:34    -5.265200c -4.16  -2.83
iter:   4 13:35:35    -5.265201c -4.54  -3.06
iter:   5 13:35:35    -5.265202c -4.97  -3.55
iter:   6 13:35:36    -5.265202c -5.48  -3.67
iter:   7 13:35:37    -5.265202c -5.89  -3.87
iter:   8 13:35:38    -5.265202c -6.33  -4.36c
iter:   9 13:35:39    -5.265202c -6.65  -4.43c
iter:  10 13:35:39    -5.265202c -7.06  -5.02c
iter:  11 13:35:40    -5.265202c -7.41c -5.09c

Converged after 11 iterations.

Dipole moment: (0.002032, -0.004340, -0.018363) |e|*Ang

Energy contributions relative to reference atoms: (reference = -26392.251304)

Kinetic:        +12.094520
Potential:      -11.067234
External:        +0.000000
XC:              -6.285976
Entropy (-ST):   -0.000012
Local:           -0.006505
--------------------------
Free energy:     -5.265208
Extrapolated:    -5.265202

 Band  Eigenvalues  Occupancy
    0     -4.17613    2.00000
    1     -3.16008    2.00000
    2     -3.15784    2.00000
    3     -1.88532    0.00001
    4     -1.76149    0.00000
    5     -1.74866    0.00000
    6     -1.57548    0.00000
    7     -0.76615    0.00000
    8     -0.74827    0.00000
    9     -0.71918    0.00000

Fermi level: -2.50832

Gap: 1.273 eV
Transition (v -> c):
  (s=0, k=0, n=2, [0.00, 0.00, 0.00]) -> (s=0, k=0, n=3, [0.00, 0.00, 0.00])

Forces in eV/Ang:
  0 Na    0.00021    0.00038   -0.00050
  1 Na   -0.00026   -0.00066    0.00005
  2 Na   -0.00019    0.00026   -0.00037
  3 Na    0.00018    0.00071    0.00005
  4 Na   -0.00032    0.00035   -0.00033
  5 Na   -0.00005   -0.00021   -0.00007

Writing to Assignment 2/problem_8/result/finitedifference/groundstate/calc_state.gpw (mode='')

Timing:                                      incl.     excl.
-------------------------------------------------------------------
Density initialized from wave functions:     1.450     1.449   0.2% |
 Symmetrize density:                         0.001     0.001   0.0% |
Forces:                                      4.358     4.358   0.7% |
Hamiltonian:                                19.013     0.003   0.0% |
 Atomic:                                     2.432     0.027   0.0% |
  XC Correction:                             2.405     2.405   0.4% |
 Calculate atomic Hamiltonians:              0.150     0.150   0.0% |
 Communicate:                                0.000     0.000   0.0% |
 Hartree integrate/restrict:                 1.053     1.053   0.2% |
 Initialize Hamiltonian:                     0.001     0.001   0.0% |
 Poisson:                                    7.210     0.469   0.1% |
  Communicate from 1D:                       0.784     0.784   0.1% |
  Communicate from 2D:                       0.700     0.700   0.1% |
  Communicate to 1D:                         0.966     0.966   0.2% |
  Communicate to 2D:                         0.784     0.784   0.1% |
  FFT 1D:                                    1.031     1.031   0.2% |
  FFT 2D:                                    2.476     2.476   0.4% |
 XC 3D grid:                                 7.796     7.796   1.3% ||
 vbar:                                       0.367     0.367   0.1% |
LCAO initialization:                         0.051     0.014   0.0% |
 LCAO eigensolver:                           0.011     0.001   0.0% |
  Calculate projections:                     0.000     0.000   0.0% |
  DenseAtomicCorrection:                     0.000     0.000   0.0% |
  Distribute overlap matrix:                 0.000     0.000   0.0% |
  Orbital Layouts:                           0.001     0.001   0.0% |
  Potential matrix:                          0.009     0.009   0.0% |
 LCAO to grid:                               0.012     0.012   0.0% |
 Set positions (LCAO WFS):                   0.013     0.003   0.0% |
  Basic WFS set positions:                   0.000     0.000   0.0% |
  Basis functions set positions:             0.000     0.000   0.0% |
  P tci:                                     0.007     0.007   0.0% |
  ST tci:                                    0.002     0.002   0.0% |
  mktci:                                     0.002     0.002   0.0% |
Redistribute:                                0.016     0.016   0.0% |
SCF-cycle:                                 587.462     0.418   0.1% |
 Davidson:                                 290.606   117.086  18.8% |-------|
  Apply hamiltonian:                        28.716    28.716   4.6% |-|
  Subspace diag:                            43.712     0.057   0.0% |
   calc_h_matrix:                           33.258     4.562   0.7% |
    Apply hamiltonian:                      28.695    28.695   4.6% |-|
   diagonalize:                              0.123     0.123   0.0% |
   rotate_psi:                              10.274    10.274   1.7% ||
  calc. matrices:                           83.874    26.527   4.3% |-|
   Apply hamiltonian:                       57.347    57.347   9.2% |---|
  diagonalize:                               0.301     0.301   0.0% |
  rotate_psi:                               16.916    16.916   2.7% ||
 Density:                                   23.135     0.010   0.0% |
  Atomic density matrices:                   0.353     0.353   0.1% |
  Mix:                                      20.210    20.210   3.3% ||
  Multipole moments:                         0.085     0.085   0.0% |
  Pseudo density:                            2.477     2.468   0.4% |
   Symmetrize density:                       0.009     0.009   0.0% |
 Hamiltonian:                              272.599     0.044   0.0% |
  Atomic:                                   34.815     0.384   0.1% |
   XC Correction:                           34.431    34.431   5.5% |-|
  Calculate atomic Hamiltonians:             2.156     2.156   0.3% |
  Communicate:                               0.005     0.005   0.0% |
  Hartree integrate/restrict:               15.020    15.020   2.4% ||
  Poisson:                                 102.819     6.623   1.1% |
   Communicate from 1D:                     11.172    11.172   1.8% ||
   Communicate from 2D:                      9.977     9.977   1.6% ||
   Communicate to 1D:                       13.852    13.852   2.2% ||
   Communicate to 2D:                       11.166    11.166   1.8% ||
   FFT 1D:                                  14.640    14.640   2.4% ||
   FFT 2D:                                  35.390    35.390   5.7% |-|
  XC 3D grid:                              112.565   112.565  18.1% |------|
  vbar:                                      5.175     5.175   0.8% |
 Orthonormalize:                             0.704     0.004   0.0% |
  calc_s_matrix:                             0.179     0.179   0.0% |
  inverse-cholesky:                          0.005     0.005   0.0% |
  projections:                               0.102     0.102   0.0% |
  rotate_psi_s:                              0.415     0.415   0.1% |
Set symmetry:                                0.002     0.002   0.0% |
Other:                                       8.810     8.810   1.4% ||
-------------------------------------------------------------------
Total:                                               621.162 100.0%

Memory usage: 577.98 MiB
Date: Thu Feb  2 13:35:41 2023
