6
Lattice="16.0 0.0 0.0 0.0 16.0 0.0 0.0 0.0 16.0" Properties=species:S:1:pos:R:3:forces:R:3:magmoms:R:1 energy=-5.265201817654974 dipole="0.0020320073409106367 -0.004340113915733761 -0.018362594937769372" magmom=0.0 free_energy=-5.265208027492268 pbc="F F F"
Na      10.45148637       5.51092929      10.27417850       0.00020943       0.00038322      -0.00050225       0.00000000
Na       8.05407160       7.76569989      10.49903940      -0.00026385      -0.00066058       0.00005405       0.00000000
Na       5.64262079      10.01463596      10.49263148      -0.00019119       0.00025682      -0.00036615       0.00000000
Na       7.98737471       7.97477972       4.68055945       0.00018150       0.00070684       0.00005047       0.00000000
Na       9.28944208       6.67539952       7.41542957      -0.00032188       0.00035435      -0.00033406       0.00000000
Na       6.74211905       9.07115243       7.52839879      -0.00004746      -0.00020640      -0.00007146       0.00000000
