6
Lattice="16.0 0.0 0.0 0.0 16.0 0.0 0.0 0.0 16.0" Properties=species:S:1:pos:R:3:forces:R:3:magmoms:R:1 energy=-4.890427496880316 dipole="0.06348074930839108 0.11322793284452191 0.04503382688589118" magmom=0.0 free_energy=-4.8904311900331585 pbc="F F F"
Na       8.25384846       9.49517676       8.62626391      -0.00010140      -0.00002948      -0.00012896       0.00000000
Na       6.46161457       8.08002010      10.94137296       0.00006584       0.00018681      -0.00005054       0.00000000
Na       5.05128168       9.95911933       8.30933866      -0.00018764       0.00011635      -0.00010457       0.00000000
Na       7.23689598       9.77282886       5.55036381      -0.00009552       0.00019062      -0.00000512       0.00000000
Na       9.99592554       7.78649727       6.47552945       0.00008758      -0.00010573      -0.00005221       0.00000000
Na       9.51457027       6.73888292       9.80465947       0.00009617       0.00019920       0.00011053       0.00000000
