6
Lattice="16.0 0.0 0.0 0.0 16.0 0.0 0.0 0.0 16.0" Properties=species:S:1:pos:R:3:forces:R:3:magmoms:R:1 energy=-5.326439402093106 dipole="-0.06852864581818231 -0.08621737051814815 -0.05875526610428393" magmom=0.0 free_energy=-5.32646684763936 pbc="F F F"
Na       8.53146378       9.35834542       8.56861696       0.00016685      -0.00006890       0.00050404       0.00000000
Na       6.46019745       7.71918150      10.49498178      -0.00028485       0.00010489      -0.00039826       0.00000000
Na       5.35508908       9.87610129       7.99810789       0.00059715       0.00012752       0.00016553       0.00000000
Na       7.72132688       9.86740831       5.44504908      -0.00039098       0.00001124      -0.00048314       0.00000000
Na      10.27825297       7.69522210       6.36174814       0.00018192      -0.00006837       0.00060836       0.00000000
Na       9.50792569       6.37537512       9.48918494      -0.00050797      -0.00011209       0.00001042       0.00000000
