
  ___ ___ ___ _ _ _  
 |   |   |_  | | | | 
 | | | | | . | | | | 
 |__ |  _|___|_____|  22.8.0
 |___|_|             

User:   liljav@vera55-4
Date:   Thu Feb  2 13:25:20 2023
Arch:   x86_64
Pid:    1063521
CWD:    /cephyr/users/liljav/Vera/TIF320/TIF320-Computational-materials-and-molecular-physics-Assignments
Python: 3.10.4
gpaw:   /apps/Arch/software/GPAW/22.8.0-foss-2022a/lib/python3.10/site-packages/gpaw
_gpaw:  /apps/Arch/software/GPAW/22.8.0-foss-2022a/lib/python3.10/site-packages/
        _gpaw.cpython-310-x86_64-linux-gnu.so
ase:    /apps/Arch/software/ASE/3.22.1-foss-2022a/lib/python3.10/site-packages/ase (version 3.22.1)
numpy:  /apps/Arch/software/SciPy-bundle/2022.05-foss-2022a/lib/python3.10/site-packages/numpy (version 1.22.3)
scipy:  /apps/Arch/software/SciPy-bundle/2022.05-foss-2022a/lib/python3.10/site-packages/scipy (version 1.8.1)
libxc:  5.2.3
units:  Angstrom and eV
cores: 1
OpenMP: False
OMP_NUM_THREADS: 1

Input parameters:
  basis: dzp
  h: 0.25
  mode: lcao
  nbands: 10
  occupations: {fixmagmom: False,
                name: fermi-dirac,
                width: 0.05}
  setups: {Na: 1}
  xc: PBE

System changes: positions, numbers, cell, pbc, initial_charges, initial_magmoms 

Initialize ...

species:
  Na:
    name: Sodium
    id: 8dbce52902f3add137ce7d12431c9cac
    Z: 11.0
    valence: 1
    core: 10
    charge: 0.0
    file: /apps/Common/software/GPAW-setups/0.9.20000/Na.1.PBE.gz
    compensation charges: {type: gauss,
                           rc: 0.43,
                           lmax: 2}
    cutoffs: {filter: 2.36,
              core: 3.60}
    valence states:
      #              energy  rcut
      - 3s(1.00)    -2.744   1.349
      - 3p(0.00)    -0.743   1.349
      -  s          24.468   1.349
  
    # LCAO basis set for Na:
    #   Name: 1.dzp
    #   File: /apps/Common/software/GPAW-setups/0.9.20000/Na.1.dzp.basis.gz
    #   Number of radial functions: 3
    #   Number of spherical harmonics: 5
    #     l=0, rc=11.7656 Bohr: 3s-sz confined orbital
    #     l=0, rc=7.1094 Bohr: 3s-dz split-valence wave
    #     l=1, rc=11.7656 Bohr: p-type Gaussian polarization
    #   Number of RI-basis functions 0

Reference energy: -26511.662975  # eV

Spin-paired calculation

Convergence criteria:
 Maximum [total energy] change in last 3 cyles: 0.0005 eV / electron
 Maximum integral of absolute [dens]ity change: 0.0001 electrons / valence electron
 Maximum integral of absolute [eigenst]ate change: 4e-08 eV^2 / valence electron
 Maximum number of scf [iter]ations: 333
 (Square brackets indicate name in SCF output, whereas a 'c' in
 the SCF output indicates the quantity has converged.)

Symmetries present (total): 1

  ( 1  0  0)
  ( 0  1  0)
  ( 0  0  1)

1 k-point (Gamma)
1 k-point in the irreducible part of the Brillouin zone
       k-points in crystal coordinates                weights
   0:     0.00000000    0.00000000    0.00000000          1/1

Wave functions: LCAO
  Diagonalizer: Serial LAPACK
  Atomic Correction: dense with blas
  Data-type: float
 

Occupation numbers: Fermi-Dirac:
  width: 0.0500  # eV
 

Eigensolver
   LCAO using direct dense diagonalizer 

Densities:
  Coarse grid: 64*64*64 grid
  Fine grid: 128*128*128 grid
  Total Charge: 0.000000 

Density mixing:
  Method: separate
  Backend: pulay
  Linear mixing parameter: 0.25
  old densities: 3
  Damping of long wavelength oscillations: 1  # (no daming) 

Hamiltonian:
  XC and Coulomb potentials evaluated on a 128*128*128 grid
  Using the PBE Exchange-Correlation functional
  Interpolation: tri-quintic (5. degree polynomial)
  Poisson solver: FastPoissonSolver using
    Stencil: 6*3+1=19 point O(h^6) finite-difference Laplacian
    FFT axes: []
    FST axes: [0, 1, 2]
 

XC parameters: PBE with 2 nearest neighbor stencil

Memory estimate:
  Process memory now: 411.77 MiB
  Calculator: 127.06 MiB
    Density: 80.09 MiB
      Arrays: 50.70 MiB
      Localized functions: 17.94 MiB
      Mixer: 11.45 MiB
    Hamiltonian: 34.46 MiB
      Arrays: 33.16 MiB
      XC: 0.00 MiB
      Poisson: 0.00 MiB
      vbar: 1.29 MiB
    Wavefunctions: 12.52 MiB
      C [qnM]: 0.00 MiB
      S, T [2 x qmm]: 0.01 MiB
      P [aqMi]: 0.00 MiB
      BasisFunctions: 12.50 MiB
      Eigensolver: 0.00 MiB

Total number of cores used: 1

Number of atoms: 6
Number of atomic orbitals: 30
Number of bands in calculation: 10
Number of valence electrons: 6
Bands to converge: occupied

... initialized

Initializing position-dependent things.

Density initialized from atomic densities
           .--------------------------------------.  
          /|                                      |  
         / |                                      |  
        /  |                                      |  
       /   |                                      |  
      /    |                                      |  
     /     |                                      |  
    /      |                                      |  
   /       |                                      |  
  /        |                                      |  
 *         |                                      |  
 |         |          Na                          |  
 |         |                                      |  
 |         |       Na      Na                     |  
 |         |                Na                    |  
 |         |                                      |  
 |         |                                      |  
 |         |             Na   Na                  |  
 |         |                                      |  
 |         |                                      |  
 |         .--------------------------------------.  
 |        /                                      /   
 |       /                                      /    
 |      /                                      /     
 |     /                                      /      
 |    /                                      /       
 |   /                                      /        
 |  /                                      /         
 | /                                      /          
 |/                                      /           
 *--------------------------------------*            

Positions:
   0 Na     8.210231    9.489933    8.656516    ( 0.0000,  0.0000,  0.0000)
   1 Na     6.417931    8.101846   10.968460    ( 0.0000,  0.0000,  0.0000)
   2 Na     5.009862    9.947279    8.321395    ( 0.0000,  0.0000,  0.0000)
   3 Na     7.211492    9.790525    5.577356    ( 0.0000,  0.0000,  0.0000)
   4 Na     9.992557    7.848605    6.505352    ( 0.0000,  0.0000,  0.0000)
   5 Na     9.477264    6.754058    9.822530    ( 0.0000,  0.0000,  0.0000)

Unit cell:
           periodic     x           y           z      points  spacing
  1. axis:    no    16.000000    0.000000    0.000000    64     0.2500
  2. axis:    no     0.000000   16.000000    0.000000    64     0.2500
  3. axis:    no     0.000000    0.000000   16.000000    64     0.2500

  Lengths:  16.000000  16.000000  16.000000
  Angles:   90.000000  90.000000  90.000000

Effective grid spacing dv^(1/3) = 0.2500

     iter     time        total  log10-change:
                         energy  eigst   dens
iter:   1 13:25:23    -4.615779       c
iter:   2 13:25:24    -4.449147       c -0.64
iter:   3 13:25:25    -4.379503       c -0.87
iter:   4 13:25:26    -4.375670       c -1.39
iter:   5 13:25:27    -4.375588       c -2.05
iter:   6 13:25:28    -4.375564c      c -2.22
iter:   7 13:25:29    -4.375563c      c -2.60
iter:   8 13:25:30    -4.375563c      c -3.06
iter:   9 13:25:31    -4.375563c      c -3.24
iter:  10 13:25:32    -4.375563c      c -4.08c

Converged after 10 iterations.

Dipole moment: (0.067439, 0.114750, 0.050205) |e|*Ang

Energy contributions relative to reference atoms: (reference = -26511.662975)

Kinetic:        +20.655584
Potential:      -18.124601
External:        +0.000000
XC:              -6.930544
Entropy (-ST):   -0.000007
Local:           +0.024002
--------------------------
Free energy:     -4.375566
Extrapolated:    -4.375563

 Band  Eigenvalues  Occupancy
    0     -4.24990    2.00000
    1     -2.97404    2.00000
    2     -2.96536    2.00000
    3     -1.63350    0.00000
    4     -1.44836    0.00000
    5     -1.44071    0.00000
    6      2.08566    0.00000
    7      2.08882    0.00000
    8      2.36253    0.00000
    9      3.44725    0.00000

Fermi level: -2.28530

Gap: 1.332 eV
Transition (v -> c):
  (s=0, k=0, n=2, [0.00, 0.00, 0.00]) -> (s=0, k=0, n=3, [0.00, 0.00, 0.00])

Forces in eV/Ang:
  0 Na    0.04753    0.10158    0.03143
  1 Na   -0.05242   -0.03924    0.09322
  2 Na   -0.10273    0.03723   -0.00662
  3 Na   -0.02651    0.03070   -0.10220
  4 Na    0.07740   -0.04777   -0.07016
  5 Na    0.05903   -0.08329    0.05192

System changes: positions 

Initializing position-dependent things.

Density initialized from wave functions
           .--------------------------------------.  
          /|                                      |  
         / |                                      |  
        /  |                                      |  
       /   |                                      |  
      /    |                                      |  
     /     |                                      |  
    /      |                                      |  
   /       |                                      |  
  /        |                                      |  
 *         |                                      |  
 |         |         Na                           |  
 |         |                                      |  
 |         |       Na      NNa                    |  
 |         |                                      |  
 |         |                                      |  
 |         |                                      |  
 |         |             Na   Na                  |  
 |         |                                      |  
 |         |                                      |  
 |         .--------------------------------------.  
 |        /                                      /   
 |       /                                      /    
 |      /                                      /     
 |     /                                      /      
 |    /                                      /       
 |   /                                      /        
 |  /                                      /         
 | /                                      /          
 |/                                      /           
 *--------------------------------------*            

Positions:
   0 Na     8.278781    9.636441    8.701841    ( 0.0000,  0.0000,  0.0000)
   1 Na     6.342329    8.045250   11.102901    ( 0.0000,  0.0000,  0.0000)
   2 Na     4.861694   10.000978    8.311846    ( 0.0000,  0.0000,  0.0000)
   3 Na     7.173257    9.834797    5.429954    ( 0.0000,  0.0000,  0.0000)
   4 Na    10.104193    7.779705    6.404169    ( 0.0000,  0.0000,  0.0000)
   5 Na     9.562403    6.633937    9.897419    ( 0.0000,  0.0000,  0.0000)

Unit cell:
           periodic     x           y           z      points  spacing
  1. axis:    no    16.000000    0.000000    0.000000    64     0.2500
  2. axis:    no     0.000000   16.000000    0.000000    64     0.2500
  3. axis:    no     0.000000    0.000000   16.000000    64     0.2500

  Lengths:  16.000000  16.000000  16.000000
  Angles:   90.000000  90.000000  90.000000

Effective grid spacing dv^(1/3) = 0.2500

     iter     time        total  log10-change:
                         energy  eigst   dens
iter:   1 13:25:34    -4.383227       c
iter:   2 13:25:35    -4.380363       c -1.52
iter:   3 13:25:36    -4.377309       c -1.68
iter:   4 13:25:37    -4.377226       c -2.39
iter:   5 13:25:38    -4.377212c      c -2.70
iter:   6 13:25:39    -4.377211c      c -3.10
iter:   7 13:25:40    -4.377211c      c -3.52
iter:   8 13:25:41    -4.377211c      c -3.85
iter:   9 13:25:42    -4.377210c      c -4.11c

Converged after 9 iterations.

Dipole moment: (0.085141, 0.157668, 0.062225) |e|*Ang

Energy contributions relative to reference atoms: (reference = -26511.662975)

Kinetic:        +14.171979
Potential:      -12.958104
External:        +0.000000
XC:              -5.609638
Entropy (-ST):   -0.000021
Local:           +0.018563
--------------------------
Free energy:     -4.377221
Extrapolated:    -4.377210

 Band  Eigenvalues  Occupancy
    0     -4.12572    2.00000
    1     -2.94399    1.99999
    2     -2.94162    1.99999
    3     -1.73094    0.00002
    4     -1.53655    0.00000
    5     -1.53086    0.00000
    6      2.49741    0.00000
    7      2.50997    0.00000
    8      2.62913    0.00000
    9      3.33649    0.00000

Fermi level: -2.32049

Gap: 1.211 eV
Transition (v -> c):
  (s=0, k=0, n=2, [0.00, 0.00, 0.00]) -> (s=0, k=0, n=3, [0.00, 0.00, 0.00])

Forces in eV/Ang:
  0 Na   -0.05335   -0.10792   -0.03612
  1 Na    0.04619    0.02882   -0.07217
  2 Na    0.07923   -0.01911    0.00715
  3 Na    0.02476   -0.01574    0.07854
  4 Na   -0.05699    0.03600    0.06049
  5 Na   -0.04295    0.07605   -0.03612

System changes: positions 

Initializing position-dependent things.

Density initialized from wave functions
           .--------------------------------------.  
          /|                                      |  
         / |                                      |  
        /  |                                      |  
       /   |                                      |  
      /    |                                      |  
     /     |                                      |  
    /      |                                      |  
   /       |                                      |  
  /        |                                      |  
 *         |                                      |  
 |         |          Na                          |  
 |         |                                      |  
 |         |       Na      NNa                    |  
 |         |                                      |  
 |         |                                      |  
 |         |                                      |  
 |         |             Na   Na                  |  
 |         |                                      |  
 |         |                                      |  
 |         .--------------------------------------.  
 |        /                                      /   
 |       /                                      /    
 |      /                                      /     
 |     /                                      /      
 |    /                                      /       
 |   /                                      /        
 |  /                                      /         
 | /                                      /          
 |/                                      /           
 *--------------------------------------*            

Positions:
   0 Na     8.206141    9.498410    8.651424    ( 0.0000,  0.0000,  0.0000)
   1 Na     6.386693    8.062176   11.052209    ( 0.0000,  0.0000,  0.0000)
   2 Na     4.916681   10.008204    8.321179    ( 0.0000,  0.0000,  0.0000)
   3 Na     7.199639    9.840792    5.483881    ( 0.0000,  0.0000,  0.0000)
   4 Na    10.070417    7.802909    6.459777    ( 0.0000,  0.0000,  0.0000)
   5 Na     9.538098    6.711951    9.880717    ( 0.0000,  0.0000,  0.0000)

Unit cell:
           periodic     x           y           z      points  spacing
  1. axis:    no    16.000000    0.000000    0.000000    64     0.2500
  2. axis:    no     0.000000   16.000000    0.000000    64     0.2500
  3. axis:    no     0.000000    0.000000   16.000000    64     0.2500

  Lengths:  16.000000  16.000000  16.000000
  Angles:   90.000000  90.000000  90.000000

Effective grid spacing dv^(1/3) = 0.2500

     iter     time        total  log10-change:
                         energy  eigst   dens
iter:   1 13:25:43    -4.404269       c
iter:   2 13:25:44    -4.403116       c -1.76
iter:   3 13:25:45    -4.402375c      c -1.95
iter:   4 13:25:46    -4.402238c      c -2.35
iter:   5 13:25:47    -4.402229c      c -2.85
iter:   6 13:25:48    -4.402228c      c -3.21
iter:   7 13:25:49    -4.402228c      c -3.55
iter:   8 13:25:50    -4.402228c      c -4.06c

Converged after 8 iterations.

Dipole moment: (0.064812, 0.118470, 0.047762) |e|*Ang

Energy contributions relative to reference atoms: (reference = -26511.662975)

Kinetic:        +17.153572
Potential:      -15.346996
External:        +0.000000
XC:              -6.228854
Entropy (-ST):   -0.000008
Local:           +0.020054
--------------------------
Free energy:     -4.402232
Extrapolated:    -4.402228

 Band  Eigenvalues  Occupancy
    0     -4.17789    2.00000
    1     -2.96182    2.00000
    2     -2.95750    2.00000
    3     -1.64368    0.00001
    4     -1.50692    0.00000
    5     -1.49650    0.00000
    6      2.27131    0.00000
    7      2.29251    0.00000
    8      2.55367    0.00000
    9      3.42013    0.00000

Fermi level: -2.28710

Gap: 1.314 eV
Transition (v -> c):
  (s=0, k=0, n=2, [0.00, 0.00, 0.00]) -> (s=0, k=0, n=3, [0.00, 0.00, 0.00])

Forces in eV/Ang:
  0 Na   -0.00593    0.01028   -0.00483
  1 Na   -0.00697    0.00227   -0.00314
  2 Na    0.00858   -0.00404    0.00085
  3 Na    0.00180   -0.00268    0.00484
  4 Na   -0.00412    0.00152   -0.00315
  5 Na    0.00689   -0.00955    0.00536

System changes: positions 

Initializing position-dependent things.

Density initialized from wave functions
           .--------------------------------------.  
          /|                                      |  
         / |                                      |  
        /  |                                      |  
       /   |                                      |  
      /    |                                      |  
     /     |                                      |  
    /      |                                      |  
   /       |                                      |  
  /        |                                      |  
 *         |                                      |  
 |         |          Na                          |  
 |         |                                      |  
 |         |       Na      Na                     |  
 |         |                Na                    |  
 |         |                                      |  
 |         |                                      |  
 |         |             Na   Na                  |  
 |         |                                      |  
 |         |                                      |  
 |         .--------------------------------------.  
 |        /                                      /   
 |       /                                      /    
 |      /                                      /     
 |     /                                      /      
 |    /                                      /       
 |   /                                      /        
 |  /                                      /         
 | /                                      /          
 |/                                      /           
 *--------------------------------------*            

Positions:
   0 Na     8.383022    9.700216    8.781990    ( 0.0000,  0.0000,  0.0000)
   1 Na     6.394956    8.096069   11.001694    ( 0.0000,  0.0000,  0.0000)
   2 Na     4.951377    9.894408    8.299490    ( 0.0000,  0.0000,  0.0000)
   3 Na     7.163116    9.743731    5.538998    ( 0.0000,  0.0000,  0.0000)
   4 Na    10.003356    7.840016    6.456113    ( 0.0000,  0.0000,  0.0000)
   5 Na     9.433525    6.688596    9.773876    ( 0.0000,  0.0000,  0.0000)

Unit cell:
           periodic     x           y           z      points  spacing
  1. axis:    no    16.000000    0.000000    0.000000    64     0.2500
  2. axis:    no     0.000000   16.000000    0.000000    64     0.2500
  3. axis:    no     0.000000    0.000000   16.000000    64     0.2500

  Lengths:  16.000000  16.000000  16.000000
  Angles:   90.000000  90.000000  90.000000

Effective grid spacing dv^(1/3) = 0.2500

     iter     time        total  log10-change:
                         energy  eigst   dens
iter:   1 13:25:52    -4.386471       c
iter:   2 13:25:53    -4.385993       c -2.01
iter:   3 13:25:54    -4.385682c      c -2.22
iter:   4 13:25:55    -4.385596c      c -2.58
iter:   5 13:25:56    -4.385589c      c -3.11
iter:   6 13:25:57    -4.385588c      c -3.54
iter:   7 13:25:58    -4.385588c      c -3.78
iter:   8 13:25:59    -4.385588c      c -4.13c

Converged after 8 iterations.

Dipole moment: (0.126789, 0.172878, 0.094812) |e|*Ang

Energy contributions relative to reference atoms: (reference = -26511.662975)

Kinetic:        +17.366229
Potential:      -15.491597
External:        +0.000000
XC:              -6.281711
Entropy (-ST):   -0.000034
Local:           +0.021508
--------------------------
Free energy:     -4.385605
Extrapolated:    -4.385588

 Band  Eigenvalues  Occupancy
    0     -4.20911    2.00000
    1     -2.95597    1.99999
    2     -2.93253    1.99998
    3     -1.78763    0.00003
    4     -1.46336    0.00000
    5     -1.44271    0.00000
    6      2.23453    0.00000
    7      2.26802    0.00000
    8      2.36640    0.00000
    9      3.31728    0.00000

Fermi level: -2.34799

Gap: 1.145 eV
Transition (v -> c):
  (s=0, k=0, n=2, [0.00, 0.00, 0.00]) -> (s=0, k=0, n=3, [0.00, 0.00, 0.00])

Forces in eV/Ang:
  0 Na   -0.07515   -0.02655   -0.05955
  1 Na   -0.00166   -0.00087    0.01487
  2 Na    0.02655    0.02011    0.00459
  3 Na    0.00800    0.02161    0.01712
  4 Na    0.01670   -0.00136   -0.00483
  5 Na    0.02886   -0.01217    0.02585

System changes: positions 

Initializing position-dependent things.

Density initialized from wave functions
           .--------------------------------------.  
          /|                                      |  
         / |                                      |  
        /  |                                      |  
       /   |                                      |  
      /    |                                      |  
     /     |                                      |  
    /      |                                      |  
   /       |                                      |  
  /        |                                      |  
 *         |                                      |  
 |         |          Na                          |  
 |         |                                      |  
 |         |       Na      Na                     |  
 |         |                Na                    |  
 |         |                                      |  
 |         |                                      |  
 |         |             Na   Na                  |  
 |         |                                      |  
 |         |                                      |  
 |         .--------------------------------------.  
 |        /                                      /   
 |       /                                      /    
 |      /                                      /     
 |     /                                      /      
 |    /                                      /       
 |   /                                      /        
 |  /                                      /         
 | /                                      /          
 |/                                      /           
 *--------------------------------------*            

Positions:
   0 Na     8.215651    9.635626    8.653088    ( 0.0000,  0.0000,  0.0000)
   1 Na     6.356190    8.089221   11.024440    ( 0.0000,  0.0000,  0.0000)
   2 Na     4.993292    9.945241    8.316967    ( 0.0000,  0.0000,  0.0000)
   3 Na     7.194137    9.794086    5.546689    ( 0.0000,  0.0000,  0.0000)
   4 Na    10.030271    7.827571    6.437771    ( 0.0000,  0.0000,  0.0000)
   5 Na     9.538176    6.643660    9.869966    ( 0.0000,  0.0000,  0.0000)

Unit cell:
           periodic     x           y           z      points  spacing
  1. axis:    no    16.000000    0.000000    0.000000    64     0.2500
  2. axis:    no     0.000000   16.000000    0.000000    64     0.2500
  3. axis:    no     0.000000    0.000000   16.000000    64     0.2500

  Lengths:  16.000000  16.000000  16.000000
  Angles:   90.000000  90.000000  90.000000

Effective grid spacing dv^(1/3) = 0.2500

     iter     time        total  log10-change:
                         energy  eigst   dens
iter:   1 13:26:00    -4.393702       c
iter:   2 13:26:01    -4.388070       c -1.49
iter:   3 13:26:02    -4.387766       c -2.16
iter:   4 13:26:03    -4.387522c      c -2.30
iter:   5 13:26:04    -4.387517c      c -3.01
iter:   6 13:26:05    -4.387516c      c -3.29
iter:   7 13:26:06    -4.387516c      c -3.79
iter:   8 13:26:07    -4.387516c      c -3.99
iter:   9 13:26:08    -4.387516c      c -4.28c

Converged after 9 iterations.

Dipole moment: (0.064950, 0.159552, 0.046450) |e|*Ang

Energy contributions relative to reference atoms: (reference = -26511.662975)

Kinetic:        +17.517170
Potential:      -15.624623
External:        +0.000000
XC:              -6.300986
Entropy (-ST):   -0.000014
Local:           +0.020930
--------------------------
Free energy:     -4.387523
Extrapolated:    -4.387516

 Band  Eigenvalues  Occupancy
    0     -4.19604    2.00000
    1     -2.96261    2.00000
    2     -2.94569    1.99999
    3     -1.69842    0.00001
    4     -1.50478    0.00000
    5     -1.45534    0.00000
    6      2.21471    0.00000
    7      2.24456    0.00000
    8      2.51871    0.00000
    9      3.38311    0.00000

Fermi level: -2.30931

Gap: 1.247 eV
Transition (v -> c):
  (s=0, k=0, n=2, [0.00, 0.00, 0.00]) -> (s=0, k=0, n=3, [0.00, 0.00, 0.00])

Forces in eV/Ang:
  0 Na    0.08841   -0.08794    0.06853
  1 Na    0.03624   -0.01559    0.00011
  2 Na   -0.08982    0.02584    0.00351
  3 Na   -0.00633    0.01651   -0.07669
  4 Na    0.00538   -0.01155    0.03399
  5 Na   -0.03519    0.07243   -0.02881

System changes: positions 

Initializing position-dependent things.

Density initialized from wave functions
           .--------------------------------------.  
          /|                                      |  
         / |                                      |  
        /  |                                      |  
       /   |                                      |  
      /    |                                      |  
     /     |                                      |  
    /      |                                      |  
   /       |                                      |  
  /        |                                      |  
 *         |                                      |  
 |         |          Na                          |  
 |         |                                      |  
 |         |       Na      NNa                    |  
 |         |                                      |  
 |         |                                      |  
 |         |                                      |  
 |         |             Na   Na                  |  
 |         |                                      |  
 |         |                                      |  
 |         .--------------------------------------.  
 |        /                                      /   
 |       /                                      /    
 |      /                                      /     
 |     /                                      /      
 |    /                                      /       
 |   /                                      /        
 |  /                                      /         
 | /                                      /          
 |/                                      /           
 *--------------------------------------*            

Positions:
   0 Na     8.240481    9.530299    8.673747    ( 0.0000,  0.0000,  0.0000)
   1 Na     6.365812    8.076288   11.016816    ( 0.0000,  0.0000,  0.0000)
   2 Na     4.930987    9.980488    8.329755    ( 0.0000,  0.0000,  0.0000)
   3 Na     7.205813    9.821076    5.478075    ( 0.0000,  0.0000,  0.0000)
   4 Na    10.029281    7.815391    6.465857    ( 0.0000,  0.0000,  0.0000)
   5 Na     9.551193    6.691808    9.884722    ( 0.0000,  0.0000,  0.0000)

Unit cell:
           periodic     x           y           z      points  spacing
  1. axis:    no    16.000000    0.000000    0.000000    64     0.2500
  2. axis:    no     0.000000   16.000000    0.000000    64     0.2500
  3. axis:    no     0.000000    0.000000   16.000000    64     0.2500

  Lengths:  16.000000  16.000000  16.000000
  Angles:   90.000000  90.000000  90.000000

Effective grid spacing dv^(1/3) = 0.2500

     iter     time        total  log10-change:
                         energy  eigst   dens
iter:   1 13:26:10    -4.405583       c
iter:   2 13:26:11    -4.401818       c -1.55
iter:   3 13:26:12    -4.401658       c -2.29
iter:   4 13:26:13    -4.401527c      c -2.43
iter:   5 13:26:14    -4.401526c      c -3.26
iter:   6 13:26:15    -4.401526c      c -3.45
iter:   7 13:26:16    -4.401526c      c -4.04c

Converged after 7 iterations.

Dipole moment: (0.075463, 0.126422, 0.054920) |e|*Ang

Energy contributions relative to reference atoms: (reference = -26511.662975)

Kinetic:        +17.249502
Potential:      -15.421453
External:        +0.000000
XC:              -6.250332
Entropy (-ST):   -0.000010
Local:           +0.020761
--------------------------
Free energy:     -4.401531
Extrapolated:    -4.401526

 Band  Eigenvalues  Occupancy
    0     -4.18408    2.00000
    1     -2.96328    2.00000
    2     -2.95156    2.00000
    3     -1.66719    0.00001
    4     -1.49628    0.00000
    5     -1.48903    0.00000
    6      2.24490    0.00000
    7      2.30436    0.00000
    8      2.50626    0.00000
    9      3.40327    0.00000

Fermi level: -2.29629

Gap: 1.284 eV
Transition (v -> c):
  (s=0, k=0, n=2, [0.00, 0.00, 0.00]) -> (s=0, k=0, n=3, [0.00, 0.00, 0.00])

Forces in eV/Ang:
  0 Na   -0.01383    0.00297   -0.00576
  1 Na    0.00283   -0.01061    0.01067
  2 Na    0.00472    0.00544   -0.01018
  3 Na   -0.00313    0.00410    0.01485
  4 Na    0.01451   -0.01348   -0.00954
  5 Na   -0.00604    0.00956    0.00126

System changes: positions 

Initializing position-dependent things.

Density initialized from wave functions
           .--------------------------------------.  
          /|                                      |  
         / |                                      |  
        /  |                                      |  
       /   |                                      |  
      /    |                                      |  
     /     |                                      |  
    /      |                                      |  
   /       |                                      |  
  /        |                                      |  
 *         |                                      |  
 |         |         Na                           |  
 |         |                                      |  
 |         |       Na        Na                   |  
 |         |              Na                      |  
 |         |                                      |  
 |         |                                      |  
 |         |             Na   Na                  |  
 |         |                                      |  
 |         |                                      |  
 |         .--------------------------------------.  
 |        /                                      /   
 |       /                                      /    
 |      /                                      /     
 |     /                                      /      
 |    /                                      /       
 |   /                                      /        
 |  /                                      /         
 | /                                      /          
 |/                                      /           
 *--------------------------------------*            

Positions:
   0 Na     8.005225    9.210657    8.493162    ( 0.0000,  0.0000,  0.0000)
   1 Na     6.330109    8.032816   11.062040    ( 0.0000,  0.0000,  0.0000)
   2 Na     4.865359   10.148136    8.382224    ( 0.0000,  0.0000,  0.0000)
   3 Na     7.273505    9.971140    5.347077    ( 0.0000,  0.0000,  0.0000)
   4 Na    10.093660    7.764878    6.486337    ( 0.0000,  0.0000,  0.0000)
   5 Na     9.749092    6.712893   10.071585    ( 0.0000,  0.0000,  0.0000)

Unit cell:
           periodic     x           y           z      points  spacing
  1. axis:    no    16.000000    0.000000    0.000000    64     0.2500
  2. axis:    no     0.000000   16.000000    0.000000    64     0.2500
  3. axis:    no     0.000000    0.000000   16.000000    64     0.2500

  Lengths:  16.000000  16.000000  16.000000
  Angles:   90.000000  90.000000  90.000000

Effective grid spacing dv^(1/3) = 0.2500

     iter     time        total  log10-change:
                         energy  eigst   dens
iter:   1 13:26:17    -4.376530       c
iter:   2 13:26:18    -4.375827       c -1.88
iter:   3 13:26:19    -4.375138c      c -2.04
iter:   4 13:26:20    -4.375100c      c -2.73
iter:   5 13:26:21    -4.375095c      c -3.12
iter:   6 13:26:22    -4.375095c      c -3.47
iter:   7 13:26:23    -4.375095c      c -3.71
iter:   8 13:26:24    -4.375094c      c -4.10c

Converged after 8 iterations.

Dipole moment: (0.020028, 0.063477, 0.012641) |e|*Ang

Energy contributions relative to reference atoms: (reference = -26511.662975)

Kinetic:        +15.948576
Potential:      -14.398639
External:        +0.000000
XC:              -5.944781
Entropy (-ST):   -0.000006
Local:           +0.019752
--------------------------
Free energy:     -4.375097
Extrapolated:    -4.375094

 Band  Eigenvalues  Occupancy
    0     -4.12784    2.00000
    1     -2.97554    2.00000
    2     -2.96712    2.00000
    3     -1.58721    0.00000
    4     -1.56643    0.00000
    5     -1.50311    0.00000
    6      2.30732    0.00000
    7      2.47991    0.00000
    8      2.96692    0.00000
    9      3.42247    0.00000

Fermi level: -2.27718

Gap: 1.380 eV
Transition (v -> c):
  (s=0, k=0, n=2, [0.00, 0.00, 0.00]) -> (s=0, k=0, n=3, [0.00, 0.00, 0.00])

Forces in eV/Ang:
  0 Na    0.03138    0.00023    0.04161
  1 Na    0.00666    0.00282    0.00048
  2 Na    0.00847   -0.01962   -0.01121
  3 Na    0.00239   -0.02566    0.04576
  4 Na    0.01969   -0.01011   -0.02045
  5 Na   -0.07103    0.05355   -0.05767

System changes: positions 

Initializing position-dependent things.

Density initialized from wave functions
           .--------------------------------------.  
          /|                                      |  
         / |                                      |  
        /  |                                      |  
       /   |                                      |  
      /    |                                      |  
     /     |                                      |  
    /      |                                      |  
   /       |                                      |  
  /        |                                      |  
 *         |                                      |  
 |         |         Na                           |  
 |         |                                      |  
 |         |       Na      NaNa                   |  
 |         |                                      |  
 |         |                                      |  
 |         |                                      |  
 |         |             Na   Na                  |  
 |         |                                      |  
 |         |                                      |  
 |         .--------------------------------------.  
 |        /                                      /   
 |       /                                      /    
 |      /                                      /     
 |     /                                      /      
 |    /                                      /       
 |   /                                      /        
 |  /                                      /         
 | /                                      /          
 |/                                      /           
 *--------------------------------------*            

Positions:
   0 Na     8.215124    9.470056    8.692487    ( 0.0000,  0.0000,  0.0000)
   1 Na     6.292988    8.016316   10.976546    ( 0.0000,  0.0000,  0.0000)
   2 Na     4.942257   10.000834    8.305437    ( 0.0000,  0.0000,  0.0000)
   3 Na     7.244950    9.841316    5.484860    ( 0.0000,  0.0000,  0.0000)
   4 Na    10.022748    7.714218    6.425554    ( 0.0000,  0.0000,  0.0000)
   5 Na     9.607655    6.765625    9.971189    ( 0.0000,  0.0000,  0.0000)

Unit cell:
           periodic     x           y           z      points  spacing
  1. axis:    no    16.000000    0.000000    0.000000    64     0.2500
  2. axis:    no     0.000000   16.000000    0.000000    64     0.2500
  3. axis:    no     0.000000    0.000000   16.000000    64     0.2500

  Lengths:  16.000000  16.000000  16.000000
  Angles:   90.000000  90.000000  90.000000

Effective grid spacing dv^(1/3) = 0.2500

     iter     time        total  log10-change:
                         energy  eigst   dens
iter:   1 13:26:26    -4.399724       c
iter:   2 13:26:26    -4.398873       c -1.86
iter:   3 13:26:27    -4.398406c      c -2.08
iter:   4 13:26:28    -4.398234c      c -2.38
iter:   5 13:26:29    -4.398230c      c -3.09
iter:   6 13:26:30    -4.398227c      c -3.30
iter:   7 13:26:31    -4.398227c      c -3.84
iter:   8 13:26:32    -4.398227c      c -4.10c

Converged after 8 iterations.

Dipole moment: (0.068740, 0.110691, 0.061674) |e|*Ang

Energy contributions relative to reference atoms: (reference = -26511.662975)

Kinetic:        +17.020205
Potential:      -15.239908
External:        +0.000000
XC:              -6.199365
Entropy (-ST):   -0.000009
Local:           +0.020846
--------------------------
Free energy:     -4.398232
Extrapolated:    -4.398227

 Band  Eigenvalues  Occupancy
    0     -4.17607    2.00000
    1     -2.96094    2.00000
    2     -2.95622    2.00000
    3     -1.65673    0.00001
    4     -1.51273    0.00000
    5     -1.48749    0.00000
    6      2.27376    0.00000
    7      2.30699    0.00000
    8      2.55769    0.00000
    9      3.41171    0.00000

Fermi level: -2.29245

Gap: 1.299 eV
Transition (v -> c):
  (s=0, k=0, n=2, [0.00, 0.00, 0.00]) -> (s=0, k=0, n=3, [0.00, 0.00, 0.00])

Forces in eV/Ang:
  0 Na    0.01173    0.00878   -0.04273
  1 Na    0.01330   -0.00354    0.01712
  2 Na   -0.00924    0.00389   -0.01324
  3 Na    0.00082   -0.00751    0.01045
  4 Na   -0.01183    0.02298    0.03708
  5 Na   -0.00461   -0.02472   -0.00726

System changes: positions 

Initializing position-dependent things.

Density initialized from wave functions
           .--------------------------------------.  
          /|                                      |  
         / |                                      |  
        /  |                                      |  
       /   |                                      |  
      /    |                                      |  
     /     |                                      |  
    /      |                                      |  
   /       |                                      |  
  /        |                                      |  
 *         |                                      |  
 |         |         Na                           |  
 |         |                                      |  
 |         |               NaNa                   |  
 |         |       Na                             |  
 |         |                                      |  
 |         |                                      |  
 |         |             Na   Na                  |  
 |         |                                      |  
 |         |                                      |  
 |         .--------------------------------------.  
 |        /                                      /   
 |       /                                      /    
 |      /                                      /     
 |     /                                      /      
 |    /                                      /       
 |   /                                      /        
 |  /                                      /         
 | /                                      /          
 |/                                      /           
 *--------------------------------------*            

Positions:
   0 Na     8.314262    9.495549    8.572459    ( 0.0000,  0.0000,  0.0000)
   1 Na     6.258476    7.907147   10.994042    ( 0.0000,  0.0000,  0.0000)
   2 Na     4.908682   10.016254    8.185134    ( 0.0000,  0.0000,  0.0000)
   3 Na     7.288107    9.803061    5.562691    ( 0.0000,  0.0000,  0.0000)
   4 Na     9.944868    7.673287    6.541115    ( 0.0000,  0.0000,  0.0000)
   5 Na     9.618260    6.763692   10.020955    ( 0.0000,  0.0000,  0.0000)

Unit cell:
           periodic     x           y           z      points  spacing
  1. axis:    no    16.000000    0.000000    0.000000    64     0.2500
  2. axis:    no     0.000000   16.000000    0.000000    64     0.2500
  3. axis:    no     0.000000    0.000000   16.000000    64     0.2500

  Lengths:  16.000000  16.000000  16.000000
  Angles:   90.000000  90.000000  90.000000

Effective grid spacing dv^(1/3) = 0.2500

     iter     time        total  log10-change:
                         energy  eigst   dens
iter:   1 13:26:34    -4.374509       c
iter:   2 13:26:35    -4.363315       c -1.32
iter:   3 13:26:35    -4.362761       c -1.98
iter:   4 13:26:36    -4.362383c      c -2.17
iter:   5 13:26:37    -4.362365c      c -2.71
iter:   6 13:26:38    -4.362356c      c -2.93
iter:   7 13:26:39    -4.362356c      c -3.81
iter:   8 13:26:40    -4.362356c      c -3.98
iter:   9 13:26:41    -4.362356c      c -4.38c

Converged after 9 iterations.

Dipole moment: (0.107766, 0.125672, 0.016689) |e|*Ang

Energy contributions relative to reference atoms: (reference = -26511.662975)

Kinetic:        +17.465312
Potential:      -15.578137
External:        +0.000000
XC:              -6.270767
Entropy (-ST):   -0.000012
Local:           +0.021243
--------------------------
Free energy:     -4.362362
Extrapolated:    -4.362356

 Band  Eigenvalues  Occupancy
    0     -4.19195    2.00000
    1     -2.98791    2.00000
    2     -2.92607    1.99999
    3     -1.67365    0.00001
    4     -1.52929    0.00000
    5     -1.46586    0.00000
    6      2.18518    0.00000
    7      2.26714    0.00000
    8      2.62244    0.00000
    9      3.40218    0.00000

Fermi level: -2.29522

Gap: 1.252 eV
Transition (v -> c):
  (s=0, k=0, n=2, [0.00, 0.00, 0.00]) -> (s=0, k=0, n=3, [0.00, 0.00, 0.00])

Forces in eV/Ang:
  0 Na   -0.12478    0.01223    0.20896
  1 Na    0.05660    0.07059   -0.08569
  2 Na    0.04951   -0.03613    0.06504
  3 Na   -0.04447    0.02119   -0.12771
  4 Na    0.10226   -0.06151   -0.06907
  5 Na   -0.03921   -0.00687    0.00718

System changes: positions 

Initializing position-dependent things.

Density initialized from wave functions
           .--------------------------------------.  
          /|                                      |  
         / |                                      |  
        /  |                                      |  
       /   |                                      |  
      /    |                                      |  
     /     |                                      |  
    /      |                                      |  
   /       |                                      |  
  /        |                                      |  
 *         |                                      |  
 |         |         Na                           |  
 |         |                                      |  
 |         |               NNa                    |  
 |         |       Na                             |  
 |         |                                      |  
 |         |                                      |  
 |         |             Na   Na                  |  
 |         |                                      |  
 |         |                                      |  
 |         .--------------------------------------.  
 |        /                                      /   
 |       /                                      /    
 |      /                                      /     
 |     /                                      /      
 |    /                                      /       
 |   /                                      /        
 |  /                                      /         
 | /                                      /          
 |/                                      /           
 *--------------------------------------*            

Positions:
   0 Na     8.220511    9.566693    8.721239    ( 0.0000,  0.0000,  0.0000)
   1 Na     6.353743    7.896886   10.881111    ( 0.0000,  0.0000,  0.0000)
   2 Na     4.953761    9.971857    8.127418    ( 0.0000,  0.0000,  0.0000)
   3 Na     7.260776    9.777748    5.452572    ( 0.0000,  0.0000,  0.0000)
   4 Na    10.006384    7.555846    6.638900    ( 0.0000,  0.0000,  0.0000)
   5 Na     9.547191    6.700872   10.082111    ( 0.0000,  0.0000,  0.0000)

Unit cell:
           periodic     x           y           z      points  spacing
  1. axis:    no    16.000000    0.000000    0.000000    64     0.2500
  2. axis:    no     0.000000   16.000000    0.000000    64     0.2500
  3. axis:    no     0.000000    0.000000   16.000000    64     0.2500

  Lengths:  16.000000  16.000000  16.000000
  Angles:   90.000000  90.000000  90.000000

Effective grid spacing dv^(1/3) = 0.2500

     iter     time        total  log10-change:
                         energy  eigst   dens
iter:   1 13:26:42    -4.397629       c
iter:   2 13:26:43    -4.384474       c -1.27
iter:   3 13:26:44    -4.383702       c -1.89
iter:   4 13:26:45    -4.383224c      c -2.09
iter:   5 13:26:46    -4.383194c      c -2.62
iter:   6 13:26:47    -4.383179c      c -2.84
iter:   7 13:26:48    -4.383179c      c -3.64
iter:   8 13:26:49    -4.383179c      c -3.82
iter:   9 13:26:50    -4.383179c      c -4.32c

Converged after 9 iterations.

Dipole moment: (0.067557, 0.163785, 0.066612) |e|*Ang

Energy contributions relative to reference atoms: (reference = -26511.662975)

Kinetic:        +16.971230
Potential:      -15.184853
External:        +0.000000
XC:              -6.190229
Entropy (-ST):   -0.000023
Local:           +0.020683
--------------------------
Free energy:     -4.383190
Extrapolated:    -4.383179

 Band  Eigenvalues  Occupancy
    0     -4.18934    2.00000
    1     -3.01594    2.00000
    2     -2.88668    1.99998
    3     -1.71970    0.00002
    4     -1.50188    0.00000
    5     -1.47228    0.00000
    6      2.25126    0.00000
    7      2.32061    0.00000
    8      2.45764    0.00000
    9      3.34270    0.00000

Fermi level: -2.30187

Gap: 1.167 eV
Transition (v -> c):
  (s=0, k=0, n=2, [0.00, 0.00, 0.00]) -> (s=0, k=0, n=3, [0.00, 0.00, 0.00])

Forces in eV/Ang:
  0 Na    0.02507   -0.03967   -0.04966
  1 Na   -0.06817    0.02970    0.03098
  2 Na   -0.01181   -0.01517    0.04733
  3 Na    0.05857   -0.03171    0.02124
  4 Na   -0.00864    0.04390   -0.01726
  5 Na    0.00353    0.01355   -0.03229

System changes: positions 

Initializing position-dependent things.

Density initialized from wave functions
           .--------------------------------------.  
          /|                                      |  
         / |                                      |  
        /  |                                      |  
       /   |                                      |  
      /    |                                      |  
     /     |                                      |  
    /      |                                      |  
   /       |                                      |  
  /        |                                      |  
 *         |                                      |  
 |         |          Na                          |  
 |         |                                      |  
 |         |       Na      NNa                    |  
 |         |                                      |  
 |         |                                      |  
 |         |                                      |  
 |         |             Na   Na                  |  
 |         |                                      |  
 |         |                                      |  
 |         .--------------------------------------.  
 |        /                                      /   
 |       /                                      /    
 |      /                                      /     
 |     /                                      /      
 |    /                                      /       
 |   /                                      /        
 |  /                                      /         
 | /                                      /          
 |/                                      /           
 *--------------------------------------*            

Positions:
   0 Na     8.215753    9.514982    8.659289    ( 0.0000,  0.0000,  0.0000)
   1 Na     6.365388    8.052093   11.029514    ( 0.0000,  0.0000,  0.0000)
   2 Na     4.927598    9.993499    8.309387    ( 0.0000,  0.0000,  0.0000)
   3 Na     7.214350    9.824665    5.487122    ( 0.0000,  0.0000,  0.0000)
   4 Na    10.053390    7.783622    6.469834    ( 0.0000,  0.0000,  0.0000)
   5 Na     9.544302    6.707928    9.899906    ( 0.0000,  0.0000,  0.0000)

Unit cell:
           periodic     x           y           z      points  spacing
  1. axis:    no    16.000000    0.000000    0.000000    64     0.2500
  2. axis:    no     0.000000   16.000000    0.000000    64     0.2500
  3. axis:    no     0.000000    0.000000   16.000000    64     0.2500

  Lengths:  16.000000  16.000000  16.000000
  Angles:   90.000000  90.000000  90.000000

Effective grid spacing dv^(1/3) = 0.2500

     iter     time        total  log10-change:
                         energy  eigst   dens
iter:   1 13:26:51    -4.405124       c
iter:   2 13:26:52    -4.403250       c -1.69
iter:   3 13:26:53    -4.402701c      c -1.92
iter:   4 13:26:54    -4.402583c      c -2.25
iter:   5 13:26:55    -4.402570c      c -2.63
iter:   6 13:26:56    -4.402567c      c -2.95
iter:   7 13:26:56    -4.402567c      c -3.59
iter:   8 13:26:57    -4.402567c      c -3.80
iter:   9 13:26:58    -4.402567c      c -4.21c

Converged after 9 iterations.

Dipole moment: (0.067624, 0.124930, 0.049598) |e|*Ang

Energy contributions relative to reference atoms: (reference = -26511.662975)

Kinetic:        +17.203404
Potential:      -15.386503
External:        +0.000000
XC:              -6.240174
Entropy (-ST):   -0.000009
Local:           +0.020710
--------------------------
Free energy:     -4.402572
Extrapolated:    -4.402567

 Band  Eigenvalues  Occupancy
    0     -4.18101    2.00000
    1     -2.95994    2.00000
    2     -2.95690    2.00000
    3     -1.65580    0.00001
    4     -1.49829    0.00000
    5     -1.49574    0.00000
    6      2.27760    0.00000
    7      2.27854    0.00000
    8      2.52813    0.00000
    9      3.41209    0.00000

Fermi level: -2.29178

Gap: 1.301 eV
Transition (v -> c):
  (s=0, k=0, n=2, [0.00, 0.00, 0.00]) -> (s=0, k=0, n=3, [0.00, 0.00, 0.00])

Forces in eV/Ang:
  0 Na   -0.00040   -0.00222    0.00203
  1 Na   -0.00090    0.00180   -0.00031
  2 Na    0.00024   -0.00052    0.00006
  3 Na   -0.00021   -0.00058   -0.00091
  4 Na    0.00161    0.00040   -0.00071
  5 Na   -0.00111   -0.00020    0.00091

System changes: positions 

Initializing position-dependent things.

Density initialized from wave functions
           .--------------------------------------.  
          /|                                      |  
         / |                                      |  
        /  |                                      |  
       /   |                                      |  
      /    |                                      |  
     /     |                                      |  
    /      |                                      |  
   /       |                                      |  
  /        |                                      |  
 *         |                                      |  
 |         |         Na                           |  
 |         |                                      |  
 |         |       Na      NNa                    |  
 |         |                                      |  
 |         |                                      |  
 |         |                                      |  
 |         |             Na   Na                  |  
 |         |                                      |  
 |         |                                      |  
 |         .--------------------------------------.  
 |        /                                      /   
 |       /                                      /    
 |      /                                      /     
 |     /                                      /      
 |    /                                      /       
 |   /                                      /        
 |  /                                      /         
 | /                                      /          
 |/                                      /           
 *--------------------------------------*            

Positions:
   0 Na     8.191291    9.462675    8.662544    ( 0.0000,  0.0000,  0.0000)
   1 Na     6.267906    8.011306   10.986326    ( 0.0000,  0.0000,  0.0000)
   2 Na     4.921358    9.949912    8.234476    ( 0.0000,  0.0000,  0.0000)
   3 Na     7.336481    9.723733    5.443633    ( 0.0000,  0.0000,  0.0000)
   4 Na    10.102276    7.662615    6.586919    ( 0.0000,  0.0000,  0.0000)
   5 Na     9.496188    6.685815   10.007829    ( 0.0000,  0.0000,  0.0000)

Unit cell:
           periodic     x           y           z      points  spacing
  1. axis:    no    16.000000    0.000000    0.000000    64     0.2500
  2. axis:    no     0.000000   16.000000    0.000000    64     0.2500
  3. axis:    no     0.000000    0.000000   16.000000    64     0.2500

  Lengths:  16.000000  16.000000  16.000000
  Angles:   90.000000  90.000000  90.000000

Effective grid spacing dv^(1/3) = 0.2500

     iter     time        total  log10-change:
                         energy  eigst   dens
iter:   1 13:27:00    -4.401933       c
iter:   2 13:27:01    -4.401762       c -2.18
iter:   3 13:27:02    -4.401732c      c -2.52
iter:   4 13:27:02    -4.401717c      c -2.78
iter:   5 13:27:03    -4.401717c      c -3.44
iter:   6 13:27:04    -4.401716c      c -3.66
iter:   7 13:27:05    -4.401716c      c -4.25c

Converged after 7 iterations.

Dipole moment: (0.060467, 0.128844, 0.044974) |e|*Ang

Energy contributions relative to reference atoms: (reference = -26511.662975)

Kinetic:        +17.130409
Potential:      -15.328615
External:        +0.000000
XC:              -6.224280
Entropy (-ST):   -0.000009
Local:           +0.020775
--------------------------
Free energy:     -4.401721
Extrapolated:    -4.401716

 Band  Eigenvalues  Occupancy
    0     -4.17907    2.00000
    1     -2.96199    2.00000
    2     -2.95496    2.00000
    3     -1.65477    0.00001
    4     -1.51288    0.00000
    5     -1.48475    0.00000
    6      2.26737    0.00000
    7      2.29925    0.00000
    8      2.53719    0.00000
    9      3.41195    0.00000

Fermi level: -2.29143

Gap: 1.300 eV
Transition (v -> c):
  (s=0, k=0, n=2, [0.00, 0.00, 0.00]) -> (s=0, k=0, n=3, [0.00, 0.00, 0.00])

Forces in eV/Ang:
  0 Na    0.00233   -0.00354    0.00008
  1 Na    0.00045    0.00530    0.00298
  2 Na    0.00580   -0.00062   -0.01243
  3 Na   -0.00914    0.00037    0.01234
  4 Na    0.00076    0.00840   -0.00653
  5 Na   -0.00114   -0.00619    0.00414

System changes: positions 

Initializing position-dependent things.

Density initialized from wave functions
           .--------------------------------------.  
          /|                                      |  
         / |                                      |  
        /  |                                      |  
       /   |                                      |  
      /    |                                      |  
     /     |                                      |  
    /      |                                      |  
   /       |                                      |  
  /        |                                      |  
 *         |                                      |  
 |         |         Na                           |  
 |         |                                      |  
 |         |               NNa                    |  
 |         |       Na                             |  
 |         |                                      |  
 |         |                                      |  
 |         |             Na    Na                 |  
 |         |                                      |  
 |         |                                      |  
 |         .--------------------------------------.  
 |        /                                      /   
 |       /                                      /    
 |      /                                      /     
 |     /                                      /      
 |    /                                      /       
 |   /                                      /        
 |  /                                      /         
 | /                                      /          
 |/                                      /           
 *--------------------------------------*            

Positions:
   0 Na     8.203456    9.434006    8.676082    ( 0.0000,  0.0000,  0.0000)
   1 Na     6.268305    8.053249   11.011631    ( 0.0000,  0.0000,  0.0000)
   2 Na     4.929709    9.943631    8.199980    ( 0.0000,  0.0000,  0.0000)
   3 Na     7.301215    9.717919    5.472690    ( 0.0000,  0.0000,  0.0000)
   4 Na    10.127223    7.711117    6.557240    ( 0.0000,  0.0000,  0.0000)
   5 Na     9.474720    6.656137   10.012291    ( 0.0000,  0.0000,  0.0000)

Unit cell:
           periodic     x           y           z      points  spacing
  1. axis:    no    16.000000    0.000000    0.000000    64     0.2500
  2. axis:    no     0.000000   16.000000    0.000000    64     0.2500
  3. axis:    no     0.000000    0.000000   16.000000    64     0.2500

  Lengths:  16.000000  16.000000  16.000000
  Angles:   90.000000  90.000000  90.000000

Effective grid spacing dv^(1/3) = 0.2500

     iter     time        total  log10-change:
                         energy  eigst   dens
iter:   1 13:27:07    -4.402852       c
iter:   2 13:27:07    -4.402499       c -2.04
iter:   3 13:27:08    -4.402453c      c -2.39
iter:   4 13:27:09    -4.402432c      c -2.64
iter:   5 13:27:10    -4.402432c      c -3.32
iter:   6 13:27:11    -4.402431c      c -3.52
iter:   7 13:27:12    -4.402431c      c -4.10c

Converged after 7 iterations.

Dipole moment: (0.068001, 0.117482, 0.051151) |e|*Ang

Energy contributions relative to reference atoms: (reference = -26511.662975)

Kinetic:        +17.163620
Potential:      -15.356138
External:        +0.000000
XC:              -6.230626
Entropy (-ST):   -0.000008
Local:           +0.020716
--------------------------
Free energy:     -4.402436
Extrapolated:    -4.402431

 Band  Eigenvalues  Occupancy
    0     -4.17852    2.00000
    1     -2.96248    2.00000
    2     -2.95648    2.00000
    3     -1.64677    0.00001
    4     -1.50816    0.00000
    5     -1.49354    0.00000
    6      2.27049    0.00000
    7      2.29298    0.00000
    8      2.54747    0.00000
    9      3.41787    0.00000

Fermi level: -2.28834

Gap: 1.310 eV
Transition (v -> c):
  (s=0, k=0, n=2, [0.00, 0.00, 0.00]) -> (s=0, k=0, n=3, [0.00, 0.00, 0.00])

Forces in eV/Ang:
  0 Na    0.00086    0.00446   -0.00216
  1 Na   -0.00281   -0.00218    0.00196
  2 Na    0.00072    0.00019    0.00485
  3 Na    0.00147    0.00125   -0.00442
  4 Na   -0.00145   -0.00237    0.00732
  5 Na    0.00222    0.00239   -0.00669

System changes: positions 

Initializing position-dependent things.

Density initialized from wave functions
           .--------------------------------------.  
          /|                                      |  
         / |                                      |  
        /  |                                      |  
       /   |                                      |  
      /    |                                      |  
     /     |                                      |  
    /      |                                      |  
   /       |                                      |  
  /        |                                      |  
 *         |                                      |  
 |         |         Na                           |  
 |         |                                      |  
 |         |       Na      NNa                    |  
 |         |                                      |  
 |         |                                      |  
 |         |                                      |  
 |         |             Na   Na                  |  
 |         |                                      |  
 |         |                                      |  
 |         .--------------------------------------.  
 |        /                                      /   
 |       /                                      /    
 |      /                                      /     
 |     /                                      /      
 |    /                                      /       
 |   /                                      /        
 |  /                                      /         
 | /                                      /          
 |/                                      /           
 *--------------------------------------*            

Positions:
   0 Na     8.207696    9.468014    8.670527    ( 0.0000,  0.0000,  0.0000)
   1 Na     6.294700    8.048325   11.019165    ( 0.0000,  0.0000,  0.0000)
   2 Na     4.934365    9.962638    8.243972    ( 0.0000,  0.0000,  0.0000)
   3 Na     7.268898    9.760768    5.471365    ( 0.0000,  0.0000,  0.0000)
   4 Na    10.098417    7.729497    6.536486    ( 0.0000,  0.0000,  0.0000)
   5 Na     9.506214    6.681508    9.966073    ( 0.0000,  0.0000,  0.0000)

Unit cell:
           periodic     x           y           z      points  spacing
  1. axis:    no    16.000000    0.000000    0.000000    64     0.2500
  2. axis:    no     0.000000   16.000000    0.000000    64     0.2500
  3. axis:    no     0.000000    0.000000   16.000000    64     0.2500

  Lengths:  16.000000  16.000000  16.000000
  Angles:   90.000000  90.000000  90.000000

Effective grid spacing dv^(1/3) = 0.2500

     iter     time        total  log10-change:
                         energy  eigst   dens
iter:   1 13:27:13    -4.402740       c
iter:   2 13:27:14    -4.402704       c -2.51
iter:   3 13:27:15    -4.402696c      c -2.79
iter:   4 13:27:16    -4.402693c      c -3.08
iter:   5 13:27:17    -4.402692c      c -3.67
iter:   6 13:27:18    -4.402692c      c -3.90
iter:   7 13:27:19    -4.402692c      c -4.54c

Converged after 7 iterations.

Dipole moment: (0.067412, 0.121623, 0.050137) |e|*Ang

Energy contributions relative to reference atoms: (reference = -26511.662975)

Kinetic:        +17.170094
Potential:      -15.360919
External:        +0.000000
XC:              -6.232806
Entropy (-ST):   -0.000009
Local:           +0.020943
--------------------------
Free energy:     -4.402697
Extrapolated:    -4.402692

 Band  Eigenvalues  Occupancy
    0     -4.17952    2.00000
    1     -2.96062    2.00000
    2     -2.95718    2.00000
    3     -1.65149    0.00001
    4     -1.50112    0.00000
    5     -1.49712    0.00000
    6      2.27458    0.00000
    7      2.28685    0.00000
    8      2.53812    0.00000
    9      3.41481    0.00000

Fermi level: -2.29012

Gap: 1.306 eV
Transition (v -> c):
  (s=0, k=0, n=2, [0.00, 0.00, 0.00]) -> (s=0, k=0, n=3, [0.00, 0.00, 0.00])

Forces in eV/Ang:
  0 Na   -0.00096    0.00146   -0.00048
  1 Na    0.00316    0.00077   -0.00162
  2 Na   -0.00355    0.00042    0.00067
  3 Na    0.00340   -0.00102    0.00235
  4 Na   -0.00090    0.00105   -0.00151
  5 Na   -0.00169   -0.00130    0.00189

System changes: positions 

Initializing position-dependent things.

Density initialized from wave functions
           .--------------------------------------.  
          /|                                      |  
         / |                                      |  
        /  |                                      |  
       /   |                                      |  
      /    |                                      |  
     /     |                                      |  
    /      |                                      |  
   /       |                                      |  
  /        |                                      |  
 *         |                                      |  
 |         |         Na                           |  
 |         |                                      |  
 |         |       Na      NNa                    |  
 |         |                                      |  
 |         |                                      |  
 |         |                                      |  
 |         |             Na   Na                  |  
 |         |                                      |  
 |         |                                      |  
 |         .--------------------------------------.  
 |        /                                      /   
 |       /                                      /    
 |      /                                      /     
 |     /                                      /      
 |    /                                      /       
 |   /                                      /        
 |  /                                      /         
 | /                                      /          
 |/                                      /           
 *--------------------------------------*            

Positions:
   0 Na     8.205518    9.478604    8.669517    ( 0.0000,  0.0000,  0.0000)
   1 Na     6.311748    8.053566   11.019216    ( 0.0000,  0.0000,  0.0000)
   2 Na     4.923714    9.969479    8.258300    ( 0.0000,  0.0000,  0.0000)
   3 Na     7.268374    9.769411    5.478342    ( 0.0000,  0.0000,  0.0000)
   4 Na    10.092003    7.741308    6.523378    ( 0.0000,  0.0000,  0.0000)
   5 Na     9.506774    6.683379    9.958691    ( 0.0000,  0.0000,  0.0000)

Unit cell:
           periodic     x           y           z      points  spacing
  1. axis:    no    16.000000    0.000000    0.000000    64     0.2500
  2. axis:    no     0.000000   16.000000    0.000000    64     0.2500
  3. axis:    no     0.000000    0.000000   16.000000    64     0.2500

  Lengths:  16.000000  16.000000  16.000000
  Angles:   90.000000  90.000000  90.000000

Effective grid spacing dv^(1/3) = 0.2500

     iter     time        total  log10-change:
                         energy  eigst   dens
iter:   1 13:27:20    -4.402716       c
iter:   2 13:27:21    -4.402711       c -2.89
iter:   3 13:27:22    -4.402709c      c -3.10
iter:   4 13:27:23    -4.402708c      c -3.61
iter:   5 13:27:24    -4.402708c      c -3.99
iter:   6 13:27:25    -4.402708c      c -4.29c

Converged after 6 iterations.

Dipole moment: (0.066276, 0.122868, 0.049754) |e|*Ang

Energy contributions relative to reference atoms: (reference = -26511.662975)

Kinetic:        +17.179237
Potential:      -15.368090
External:        +0.000000
XC:              -6.234787
Entropy (-ST):   -0.000009
Local:           +0.020936
--------------------------
Free energy:     -4.402713
Extrapolated:    -4.402708

 Band  Eigenvalues  Occupancy
    0     -4.17980    2.00000
    1     -2.95964    2.00000
    2     -2.95799    2.00000
    3     -1.65203    0.00001
    4     -1.49882    0.00000
    5     -1.49860    0.00000
    6      2.27478    0.00000
    7      2.28533    0.00000
    8      2.53648    0.00000
    9      3.41449    0.00000

Fermi level: -2.29032

Gap: 1.306 eV
Transition (v -> c):
  (s=0, k=0, n=2, [0.00, 0.00, 0.00]) -> (s=0, k=0, n=3, [0.00, 0.00, 0.00])

Forces in eV/Ang:
  0 Na    0.00153   -0.00018   -0.00045
  1 Na   -0.00228   -0.00166    0.00246
  2 Na    0.00316    0.00006   -0.00102
  3 Na   -0.00230    0.00076   -0.00120
  4 Na   -0.00084    0.00030    0.00255
  5 Na   -0.00007    0.00091   -0.00063

System changes: positions 

Initializing position-dependent things.

Density initialized from wave functions
           .--------------------------------------.  
          /|                                      |  
         / |                                      |  
        /  |                                      |  
       /   |                                      |  
      /    |                                      |  
     /     |                                      |  
    /      |                                      |  
   /       |                                      |  
  /        |                                      |  
 *         |                                      |  
 |         |         Na                           |  
 |         |                                      |  
 |         |       Na      NNa                    |  
 |         |                                      |  
 |         |                                      |  
 |         |                                      |  
 |         |             Na   Na                  |  
 |         |                                      |  
 |         |                                      |  
 |         .--------------------------------------.  
 |        /                                      /   
 |       /                                      /    
 |      /                                      /     
 |     /                                      /      
 |    /                                      /       
 |   /                                      /        
 |  /                                      /         
 | /                                      /          
 |/                                      /           
 *--------------------------------------*            

Positions:
   0 Na     8.207088    9.475833    8.672439    ( 0.0000,  0.0000,  0.0000)
   1 Na     6.301542    8.050564   11.020808    ( 0.0000,  0.0000,  0.0000)
   2 Na     4.929552    9.965132    8.249297    ( 0.0000,  0.0000,  0.0000)
   3 Na     7.272508    9.762216    5.475558    ( 0.0000,  0.0000,  0.0000)
   4 Na    10.094726    7.735992    6.534147    ( 0.0000,  0.0000,  0.0000)
   5 Na     9.499414    6.681159    9.966742    ( 0.0000,  0.0000,  0.0000)

Unit cell:
           periodic     x           y           z      points  spacing
  1. axis:    no    16.000000    0.000000    0.000000    64     0.2500
  2. axis:    no     0.000000   16.000000    0.000000    64     0.2500
  3. axis:    no     0.000000    0.000000   16.000000    64     0.2500

  Lengths:  16.000000  16.000000  16.000000
  Angles:   90.000000  90.000000  90.000000

Effective grid spacing dv^(1/3) = 0.2500

     iter     time        total  log10-change:
                         energy  eigst   dens
iter:   1 13:27:26    -4.402741       c
iter:   2 13:27:27    -4.402740       c -3.29
iter:   3 13:27:28    -4.402740c      c -3.55
iter:   4 13:27:29    -4.402739c      c -3.91
iter:   5 13:27:30    -4.402739c      c -4.39c

Converged after 5 iterations.

Dipole moment: (0.067184, 0.123062, 0.049987) |e|*Ang

Energy contributions relative to reference atoms: (reference = -26511.662975)

Kinetic:        +17.182775
Potential:      -15.370777
External:        +0.000000
XC:              -6.235712
Entropy (-ST):   -0.000009
Local:           +0.020979
--------------------------
Free energy:     -4.402744
Extrapolated:    -4.402739

 Band  Eigenvalues  Occupancy
    0     -4.18011    2.00000
    1     -2.95958    2.00000
    2     -2.95786    2.00000
    3     -1.65318    0.00001
    4     -1.49894    0.00000
    5     -1.49763    0.00000
    6      2.27826    0.00000
    7      2.28104    0.00000
    8      2.53418    0.00000
    9      3.41373    0.00000

Fermi level: -2.29078

Gap: 1.305 eV
Transition (v -> c):
  (s=0, k=0, n=2, [0.00, 0.00, 0.00]) -> (s=0, k=0, n=3, [0.00, 0.00, 0.00])

Forces in eV/Ang:
  0 Na   -0.00038    0.00003    0.00048
  1 Na   -0.00036    0.00060   -0.00051
  2 Na   -0.00041    0.00034    0.00004
  3 Na   -0.00040    0.00056    0.00071
  4 Na    0.00036   -0.00064    0.00083
  5 Na    0.00047   -0.00004   -0.00033

System changes: positions 

Initializing position-dependent things.

Density initialized from wave functions
           .--------------------------------------.  
          /|                                      |  
         / |                                      |  
        /  |                                      |  
       /   |                                      |  
      /    |                                      |  
     /     |                                      |  
    /      |                                      |  
   /       |                                      |  
  /        |                                      |  
 *         |                                      |  
 |         |         Na                           |  
 |         |                                      |  
 |         |       Na      NNa                    |  
 |         |                                      |  
 |         |                                      |  
 |         |                                      |  
 |         |             Na   Na                  |  
 |         |                                      |  
 |         |                                      |  
 |         .--------------------------------------.  
 |        /                                      /   
 |       /                                      /    
 |      /                                      /     
 |     /                                      /      
 |    /                                      /       
 |   /                                      /        
 |  /                                      /         
 | /                                      /          
 |/                                      /           
 *--------------------------------------*            

Positions:
   0 Na     8.198886    9.500045    8.717692    ( 0.0000,  0.0000,  0.0000)
   1 Na     6.259765    8.075931   11.034543    ( 0.0000,  0.0000,  0.0000)
   2 Na     4.920399    9.983224    8.249065    ( 0.0000,  0.0000,  0.0000)
   3 Na     7.288968    9.776688    5.512169    ( 0.0000,  0.0000,  0.0000)
   4 Na    10.095848    7.733446    6.597748    ( 0.0000,  0.0000,  0.0000)
   5 Na     9.455586    6.677808    9.996380    ( 0.0000,  0.0000,  0.0000)

Unit cell:
           periodic     x           y           z      points  spacing
  1. axis:    no    16.000000    0.000000    0.000000    64     0.2500
  2. axis:    no     0.000000   16.000000    0.000000    64     0.2500
  3. axis:    no     0.000000    0.000000   16.000000    64     0.2500

  Lengths:  16.000000  16.000000  16.000000
  Angles:   90.000000  90.000000  90.000000

Effective grid spacing dv^(1/3) = 0.2500

     iter     time        total  log10-change:
                         energy  eigst   dens
iter:   1 13:27:31    -4.402585       c
iter:   2 13:27:32    -4.402569       c -2.63
iter:   3 13:27:33    -4.402561c      c -2.87
iter:   4 13:27:34    -4.402561c      c -3.51
iter:   5 13:27:35    -4.402561c      c -3.76
iter:   6 13:27:36    -4.402561c      c -4.32c

Converged after 6 iterations.

Dipole moment: (0.068263, 0.126735, 0.053112) |e|*Ang

Energy contributions relative to reference atoms: (reference = -26511.662975)

Kinetic:        +17.219504
Potential:      -15.398827
External:        +0.000000
XC:              -6.244262
Entropy (-ST):   -0.000010
Local:           +0.021029
--------------------------
Free energy:     -4.402566
Extrapolated:    -4.402561

 Band  Eigenvalues  Occupancy
    0     -4.18232    2.00000
    1     -2.96169    2.00000
    2     -2.95418    2.00000
    3     -1.66103    0.00001
    4     -1.49620    0.00000
    5     -1.49379    0.00000
    6      2.27088    0.00000
    7      2.28204    0.00000
    8      2.51805    0.00000
    9      3.40824    0.00000

Fermi level: -2.29383

Gap: 1.293 eV
Transition (v -> c):
  (s=0, k=0, n=2, [0.00, 0.00, 0.00]) -> (s=0, k=0, n=3, [0.00, 0.00, 0.00])

Forces in eV/Ang:
  0 Na   -0.00092   -0.00262   -0.00335
  1 Na   -0.00001   -0.00316    0.00223
  2 Na    0.00244    0.00082    0.00162
  3 Na    0.00209    0.00034   -0.00306
  4 Na   -0.00179    0.00393   -0.00454
  5 Na   -0.00078    0.00086    0.00568

System changes: positions 

Initializing position-dependent things.

Density initialized from wave functions
           .--------------------------------------.  
          /|                                      |  
         / |                                      |  
        /  |                                      |  
       /   |                                      |  
      /    |                                      |  
     /     |                                      |  
    /      |                                      |  
   /       |                                      |  
  /        |                                      |  
 *         |                                      |  
 |         |         Na                           |  
 |         |                                      |  
 |         |       Na      NNa                    |  
 |         |                                      |  
 |         |                                      |  
 |         |                                      |  
 |         |             Na   Na                  |  
 |         |                                      |  
 |         |                                      |  
 |         .--------------------------------------.  
 |        /                                      /   
 |       /                                      /    
 |      /                                      /     
 |     /                                      /      
 |    /                                      /       
 |   /                                      /        
 |  /                                      /         
 | /                                      /          
 |/                                      /           
 *--------------------------------------*            

Positions:
   0 Na     8.200043    9.480686    8.687826    ( 0.0000,  0.0000,  0.0000)
   1 Na     6.284726    8.057970   11.027700    ( 0.0000,  0.0000,  0.0000)
   2 Na     4.925547    9.979158    8.254668    ( 0.0000,  0.0000,  0.0000)
   3 Na     7.278830    9.776091    5.488312    ( 0.0000,  0.0000,  0.0000)
   4 Na    10.092207    7.738611    6.556140    ( 0.0000,  0.0000,  0.0000)
   5 Na     9.485549    6.683463    9.985448    ( 0.0000,  0.0000,  0.0000)

Unit cell:
           periodic     x           y           z      points  spacing
  1. axis:    no    16.000000    0.000000    0.000000    64     0.2500
  2. axis:    no     0.000000   16.000000    0.000000    64     0.2500
  3. axis:    no     0.000000    0.000000   16.000000    64     0.2500

  Lengths:  16.000000  16.000000  16.000000
  Angles:   90.000000  90.000000  90.000000

Effective grid spacing dv^(1/3) = 0.2500

     iter     time        total  log10-change:
                         energy  eigst   dens
iter:   1 13:27:37    -4.402777       c
iter:   2 13:27:38    -4.402764       c -2.66
iter:   3 13:27:39    -4.402757c      c -2.91
iter:   4 13:27:40    -4.402757c      c -3.54
iter:   5 13:27:41    -4.402757c      c -3.79
iter:   6 13:27:42    -4.402757c      c -4.32c

Converged after 6 iterations.

Dipole moment: (0.066883, 0.122609, 0.050069) |e|*Ang

Energy contributions relative to reference atoms: (reference = -26511.662975)

Kinetic:        +17.181313
Potential:      -15.369790
External:        +0.000000
XC:              -6.235165
Entropy (-ST):   -0.000009
Local:           +0.020890
--------------------------
Free energy:     -4.402761
Extrapolated:    -4.402757

 Band  Eigenvalues  Occupancy
    0     -4.17991    2.00000
    1     -2.95940    2.00000
    2     -2.95826    2.00000
    3     -1.65231    0.00001
    4     -1.49899    0.00000
    5     -1.49827    0.00000
    6      2.27880    0.00000
    7      2.28092    0.00000
    8      2.53587    0.00000
    9      3.41430    0.00000

Fermi level: -2.29045

Gap: 1.306 eV
Transition (v -> c):
  (s=0, k=0, n=2, [0.00, 0.00, 0.00]) -> (s=0, k=0, n=3, [0.00, 0.00, 0.00])

Forces in eV/Ang:
  0 Na    0.00042    0.00002    0.00031
  1 Na   -0.00046    0.00036    0.00001
  2 Na   -0.00005   -0.00022    0.00001
  3 Na   -0.00009    0.00010    0.00075
  4 Na    0.00055   -0.00012   -0.00040
  5 Na   -0.00012    0.00020   -0.00090

Writing to Assignment 2/problem_8/result/LCAO_xc_PBE/excited/calc_state.gpw (mode='')

Timing:                                       incl.     excl.
--------------------------------------------------------------------
Basic WFS set positions:                      0.009     0.004   0.0% |
 Redistribute:                                0.005     0.005   0.0% |
Basis functions set positions:                0.572     0.572   0.4% |
Forces:                                       6.886     1.412   1.0% |
 LCAO forces:                                 5.474     0.006   0.0% |
  Atomic Hamiltonian force:                   0.017     0.017   0.0% |
  Initial:                                    0.002     0.000   0.0% |
   Get density matrix:                        0.002     0.002   0.0% |
  Paw correction:                             0.012     0.012   0.0% |
  Potential:                                  5.183     5.183   3.6% ||
  TCI derivative:                             0.254     0.254   0.2% |
  Wait for sum:                               0.000     0.000   0.0% |
LCAO WFS Initialize:                         16.020     0.047   0.0% |
 Density initialized from wave functions:     1.204     0.559   0.4% |
  Calculate density matrix:                   0.001     0.001   0.0% |
  Construct density:                          0.644     0.644   0.5% |
  Symmetrize density:                         0.000     0.000   0.0% |
 Hamiltonian:                                14.769     0.002   0.0% |
  Atomic:                                     3.312     0.014   0.0% |
   XC Correction:                             3.298     3.298   2.3% ||
  Calculate atomic Hamiltonians:              0.071     0.071   0.1% |
  Communicate:                                0.000     0.000   0.0% |
  Hartree integrate/restrict:                 0.501     0.501   0.4% |
  Initialize Hamiltonian:                     0.000     0.000   0.0% |
  Poisson:                                    3.386     0.208   0.1% |
   Communicate from 1D:                       0.345     0.345   0.2% |
   Communicate from 2D:                       0.305     0.305   0.2% |
   Communicate to 1D:                         0.468     0.468   0.3% |
   Communicate to 2D:                         0.344     0.344   0.2% |
   FFT 1D:                                    0.512     0.512   0.4% |
   FFT 2D:                                    1.205     1.205   0.8% |
  XC 3D grid:                                 7.330     7.330   5.1% |-|
  vbar:                                       0.167     0.167   0.1% |
P tci:                                        0.114     0.114   0.1% |
Redistribute:                                 0.002     0.002   0.0% |
SCF-cycle:                                  114.509     0.079   0.1% |
 Density:                                     9.087     0.003   0.0% |
  Atomic density matrices:                    0.086     0.086   0.1% |
  Mix:                                        4.272     4.272   3.0% ||
  Multipole moments:                          0.020     0.020   0.0% |
  Normalize:                                  0.043     0.043   0.0% |
  Pseudo density:                             4.664     0.159   0.1% |
   Calculate density matrix:                  0.008     0.008   0.0% |
   Construct density:                         4.494     4.494   3.2% ||
   Symmetrize density:                        0.003     0.003   0.0% |
 Hamiltonian:                                98.888     0.011   0.0% |
  Atomic:                                    22.308     0.094   0.1% |
   XC Correction:                            22.214    22.214  15.6% |-----|
  Calculate atomic Hamiltonians:              0.492     0.492   0.3% |
  Communicate:                                0.001     0.001   0.0% |
  Hartree integrate/restrict:                 3.318     3.318   2.3% ||
  Poisson:                                   22.593     1.377   1.0% |
   Communicate from 1D:                       2.295     2.295   1.6% ||
   Communicate from 2D:                       2.029     2.029   1.4% ||
   Communicate to 1D:                         3.154     3.154   2.2% ||
   Communicate to 2D:                         2.304     2.304   1.6% ||
   FFT 1D:                                    3.406     3.406   2.4% ||
   FFT 2D:                                    8.027     8.027   5.6% |-|
  XC 3D grid:                                49.079    49.079  34.4% |-------------|
  vbar:                                       1.086     1.086   0.8% |
 LCAO eigensolver:                            6.455     0.011   0.0% |
  Calculate projections:                      0.006     0.006   0.0% |
  DenseAtomicCorrection:                      0.028     0.028   0.0% |
  Distribute overlap matrix:                  0.002     0.002   0.0% |
  Orbital Layouts:                            0.068     0.068   0.0% |
  Potential matrix:                           6.340     6.340   4.4% |-|
ST tci:                                       0.035     0.035   0.0% |
Set symmetry:                                 0.001     0.001   0.0% |
TCI: Evaluate splines:                        0.021     0.021   0.0% |
mktci:                                        0.024     0.024   0.0% |
Other:                                        4.397     4.397   3.1% ||
--------------------------------------------------------------------
Total:                                                142.590 100.0%

Memory usage: 556.42 MiB
Date: Thu Feb  2 13:27:43 2023
