6
Lattice="16.0 0.0 0.0 0.0 16.0 0.0 0.0 0.0 16.0" Properties=species:S:1:pos:R:3:forces:R:3:magmoms:R:1 energy=-4.402756880725996 dipole="0.06688251527445802 0.12260906597458229 0.050069410241853754" magmom=0.0 free_energy=-4.402761324467968 pbc="F F F"
Na       8.20004339       9.48068645       8.68782607       0.00041913       0.00002049       0.00031324       0.00000000
Na       6.28472640       8.05796988      11.02770014      -0.00045610       0.00035727       0.00000651       0.00000000
Na       4.92554668       9.97915824       8.25466835      -0.00005248      -0.00022292       0.00000714       0.00000000
Na       7.27883024       9.77609081       5.48831161      -0.00008914       0.00010126       0.00075238       0.00000000
Na      10.09220676       7.73861086       6.55614006       0.00055096      -0.00011530      -0.00039530       0.00000000
Na       9.48554910       6.68346344       9.98544759      -0.00012479       0.00020478      -0.00089820       0.00000000
