73
Lattice="8.956369831609006 0.0 0.0 0.0 8.956369831609006 0.0 0.0 0.0 8.956369831609006" Properties=species:S:1:pos:R:3:momenta:R:3:forces:R:3 water=T with=T unit=T cell:=T ABC=T angstrom=T 12.42=T energy=-332.08506107744864 dipole="11.008618339163263 -13.674106391282475 -7.331496726602303" pbc="T T T"
O        3.26352077       5.99437836       0.69910596      -0.56183200      -0.24079923      -0.27461515       1.59869994       0.15337883       0.27302793
O        3.27706661       9.77646247       1.54387150       0.28226778       0.83852587      -0.56579789       0.02288395       0.74633494       1.20434031
O        0.86945774       5.75353548       0.08335177       0.17860930       1.04629713      -0.29553595       0.72223393      -0.44970603      -1.45724757
O        3.91803613       3.25132177       0.82246409      -0.36326124      -0.45338655      -0.57034730       1.49442412       0.31450241       0.50682137
O        6.50417111       3.28003855       1.88797234      -0.58411619       0.16299545       0.04619183      -0.18336328       0.52633567      -0.46313372
O        3.82874728       6.46405014       3.66565458       1.10837607      -0.75042021      -1.00266627       0.30505053       0.34222174       1.24505111
O        1.94822864       9.53043085       4.25425000      -0.16992281      -0.77782526      -0.85444984       0.35010972      -0.13908635      -0.57555787
O        6.48350286       7.77460516       0.33260276       0.62005902      -0.08621970       0.43220840       0.45057928       0.27612802      -0.26926898
O        6.97008664       1.57721995       8.60220606      -0.50293300      -0.46589548      -0.57188680      -1.05200726       0.01435295       1.08916878
O        1.72280923       6.90258096       5.46656775       0.61443322       0.93050018      -0.78312621       0.03039542       0.34643179       0.07403476
O        2.34697626       9.33549885      -1.43195074      -0.86667739      -1.93657064      -0.92369730      -0.31692047      -1.63603633       0.51125972
O        0.94786083       3.69024235       4.97390391       0.31431987      -0.79936332       0.11697137      -0.58933985       0.33173445      -0.01669568
O        4.85874953       2.55509599      -1.52707580      -0.35510448       0.91244574       0.13735959       0.59061627       0.22570671      -0.24025034
O        0.18254139       5.67263258       3.71205938      -0.38377288      -0.63098111       0.58624654       0.60115582      -0.41859922       0.58459926
O        0.76587253       3.50805112      -1.25437367       0.54316527       0.45667093      -0.32027120       2.29043882      -0.85603926      -0.26085861
O        5.21841605       8.38875177       2.50486174      -0.00109020       0.77297150       0.12309881      -1.01299348      -1.03740737       0.99130925
O       -0.39484738       0.43932564      -1.97607263       0.25451508      -0.04438106      -0.27056084       1.18303739       0.11259893       0.39065760
O        6.60579978       4.51487630       6.22566972      -0.38939420      -0.33219660       0.48091160      -0.55686158      -0.73417608       0.56362235
O        3.59652448       2.53675533       5.14881154      -0.61328927      -0.86633333       0.18488030       0.49357778       0.49519333      -0.53184142
O       -0.40893190      10.46995286       4.71991585       0.34840009       0.49152256      -0.87324335      -1.84166664       0.04776475      -0.78882156
O       -0.52488667       6.66502991      -2.16316338      -0.50160306       0.25634181      -0.59036279       0.13501399      -0.07636320       0.21029256
O        3.92356548       7.38263140      -1.44539393      -0.07418598       0.04561128       1.24886163      -0.62987449      -0.84215022      -0.07693592
O        7.68410132       5.70768796       1.51690888      -0.56114864       2.48465813       0.23909334      -0.98336169      -0.28977663      -0.01361991
O       -3.09141626      10.50838916       3.80609226       0.60120411      -0.40086265      -0.64147858       0.12027752       0.69545936       0.69522702
H        2.25957152       5.89366629       0.63350867       0.10270757       0.10033952      -0.15912063      -0.36677356      -0.27474721      -0.06724910
H        3.69275594       5.06320309       0.66065679       0.25868511       0.30783383      -0.05103397      -0.85274016       0.47029277       0.07903895
H        3.49738415      10.80600204       1.55822653      -0.40052977      -0.14173851       0.07852082      -0.33126019      -0.78049450      -1.08664867
H        2.78037099       9.55818636       0.71456423      -0.21797029       0.28298066      -0.32259804      -0.05996924       0.21750456      -0.38926071
H        1.13484603       4.89590069      -0.45341502       0.36769082      -0.29730438      -0.38602289      -0.29553170       0.37413909       0.34973148
H        0.14028760       5.44413171       0.67728592       0.11267936       0.15181784       0.10887056      -0.81788992       0.08008737       0.62547635
H        4.27418670       2.94866471      -0.10423423       0.21541478      -0.11577428      -0.11979325      -0.49924684       0.32997886       0.10619213
H        4.85290370       3.35586558       1.28558435      -0.03642601       0.19452824      -0.17574436      -0.76337415      -0.13577709      -0.12058663
H        6.85544530       2.66918667       1.19362275       0.10750993       0.01572400      -0.19555623       0.27466049      -0.25189448      -0.77145572
H        6.39383949       2.65436516       2.66022504      -0.11664549       0.19509503       0.13015486      -0.53315769      -0.28005334       0.69483196
H        3.31242659       6.43213949       2.83761121       0.20902119      -0.14339027      -0.25804821      -0.63060171      -0.31528715      -0.73573962
H        3.17005816       6.60645005       4.43308664      -0.18639907       0.12173480       0.24658600       0.44332896      -0.22268267      -0.94229895
H        2.29983746       9.75567556       3.32086440      -0.25138124      -0.21782902       0.22303331      -0.89591714      -0.62141493       0.50624909
H        0.94015742       9.77540514       4.33936004       0.01067580       0.08177923       0.07781145       0.71537769       0.26261007      -0.53251075
H        5.92140101       7.86993998       1.18038488       0.01084835       0.01547154       0.11186017      -0.58862947       0.40560279       0.21502789
H        5.86975398       7.65662021      -0.43742357      -0.30968158       0.04761128       0.06226383      -0.26086560      -0.28727885       0.13017853
H        7.70312397       1.34088404       7.94015268       0.08191513       0.07606845       0.07539402       0.43360785      -0.56664705      -0.28675677
H        6.73189377       0.66993318       8.99197733      -0.03470566       0.13362926       0.11313258       0.34699199       0.15427400      -0.23527647
H        1.77953500       7.84697073       5.14860222       0.04486254       0.00759397      -0.06662694       0.21986258       0.54465836      -0.24531958
H        0.91677066       6.94207213       6.11708314      -0.11228225      -0.11695469       0.21598951      -0.08007553      -0.37343976      -0.23864087
H        2.81094198      10.15673713      -1.57577598      -0.17636344       0.26852433      -0.13988742       0.59744734       1.51378002      -0.29095402
H        3.10925998       8.56983368      -1.52831780       0.25194567      -0.09242193       0.03780186      -0.72257660       0.60889141       0.49397682
H        1.93054178       3.59043523       4.90970775       0.02802207       0.04440260       0.25811386       0.31825841      -0.21420380      -0.23379088
H        0.60097094       4.48543586       4.30068353       0.09879953      -0.00050071      -0.10354000       0.28154741      -0.20125196       0.55679080
H        5.48039330       3.25728510      -1.93836832      -0.01696501      -0.26414989      -0.00762004      -0.54029938      -0.02283755       0.29628283
H        5.58130611       1.97411631      -1.08036278       0.19098092      -0.15761192      -0.23713035       0.40743280      -0.10932687      -0.11125946
H        0.72866523       6.34478118       4.27339547       0.11749644       0.09083716      -0.07173459      -0.79371370      -0.16637685      -0.75236875
H       -0.48979370       5.85530037       2.98735909      -0.62560736      -0.43880343      -0.16414510       0.17178618       0.41528154      -0.00321863
H       -0.08341502       3.90986378      -1.16079335      -0.04716669       0.04162161      -0.15212191      -2.38209485       0.53043842      -0.10476466
H        0.93682936       3.55185412      -2.25987375       0.22841190      -0.02214286       0.12816574      -0.26298830       0.25127233      -0.02090683
H        4.71614674       7.61505387       3.11469148      -0.13956496       0.26513941       0.08713719       0.62711695       1.13774648      -0.85351520
H        4.42071824       8.94854395       2.12843530       0.22634866      -0.05635776      -0.27079335       0.21487721      -0.54908362      -0.20432858
H        0.59356562       0.41103230      -1.69964814       0.13012917       0.12895064       0.24942518      -0.40296629      -0.03320042       0.16244608
H       -0.30649071       1.05111482      -2.80830032       0.20149360      -0.45491315       0.18433244      -0.59653160      -0.58903768      -0.13057262
H        6.64177529       4.26542443       5.28964350       0.01745926       0.18704653      -0.08573675      -0.01241116      -0.22064920      -0.82668421
H        7.25772487       5.24155893       6.28701780      -0.01054172      -0.17692227      -0.21205568       0.52241044       0.92269045       0.28719783
H        3.94481409       2.25702429       6.05128880      -0.07673576       0.06537714       0.07678875      -0.00592379       0.06011391      -0.10221932
H        3.07692730       1.79525073       4.73728706       0.08963057      -0.19851426      -0.01194655      -0.72983054      -0.65607144       0.54514628
H       -1.41887768      10.41457353       4.39911753       0.05353902      -0.28722223      -0.10369172       1.31856882       0.25646036       0.50843816
H       -0.07392756      11.43842855       4.72745031       0.27120282      -0.01150037      -0.15086272       0.37367199       0.03561353      -0.03598604
H       -0.06422793       6.33839559      -1.33336907      -0.05095920      -0.15226901       0.11356269       0.12384982      -0.18789167       0.54533564
H       -0.76807713       7.59873819      -1.88654506      -0.06753042      -0.03914978       0.10470896       0.01546784       0.36930919      -0.41618348
H        3.39061981       6.98756282      -2.21016833       0.01196868      -0.08731909      -0.22471495       0.51467860       0.03020239       0.42265339
H        3.54294199       6.83836604      -0.60687754       0.12897166       0.28086217      -0.02899033       0.52905018       0.17455078      -0.27462385
H        6.91618681       5.05013850       1.40890901       0.05223633      -0.09847596      -0.29154313       0.91460461       0.04969754       0.58415004
H        7.29294875       6.55832988       1.13119869       0.01706075       0.31865645       0.09530364       0.11856295       0.03587584      -0.40919199
H       -3.95494512      10.77941099       4.29461716      -0.07865441      -0.16750428      -0.16417754       0.64724614       0.23269801      -0.11868227
H       -3.30209734       9.63226506       3.33726912      -0.23975899      -0.04253193      -0.06010031      -0.03426921      -0.59583767      -0.18441630
Na       4.00000000       4.00000000       4.00000000       0.00000000       0.00000000       0.00000000       0.00000000       0.00000000       0.00000000
