
  ___ ___ ___ _ _ _  
 |   |   |_  | | | | 
 | | | | | . | | | | 
 |__ |  _|___|_____|  22.8.0
 |___|_|             

User:   liljav@vera41-3
Date:   Tue Feb  7 10:25:53 2023
Arch:   x86_64
Pid:    1406935
CWD:    /cephyr/users/liljav/Vera/TIF320/TIF320-Computational-materials-and-molecular-physics-Assignments
Python: 3.10.4
gpaw:   /apps/Arch/software/GPAW/22.8.0-foss-2022a/lib/python3.10/site-packages/gpaw
_gpaw:  /apps/Arch/software/GPAW/22.8.0-foss-2022a/lib/python3.10/site-packages/
        _gpaw.cpython-310-x86_64-linux-gnu.so
ase:    /apps/Arch/software/ASE/3.22.1-foss-2022a/lib/python3.10/site-packages/ase (version 3.22.1)
numpy:  /apps/Arch/software/SciPy-bundle/2022.05-foss-2022a/lib/python3.10/site-packages/numpy (version 1.22.3)
scipy:  /apps/Arch/software/SciPy-bundle/2022.05-foss-2022a/lib/python3.10/site-packages/scipy (version 1.8.1)
libxc:  5.2.3
units:  Angstrom and eV
cores: 32
OpenMP: False
OMP_NUM_THREADS: 1

Input parameters:
  basis: dzp
  charge: 1
  mode: lcao
  symmetry: {point_group: False}
  xc: PBE

System changes: positions, numbers, cell, pbc, initial_charges, initial_magmoms 

Initialize ...

species:
  O:
    name: Oxygen
    id: 32ecd46bf208036f09c70b0ec9a88b78
    Z: 8.0
    valence: 6
    core: 2
    charge: 0.0
    file: /apps/Common/software/GPAW-setups/0.9.20000/O.PBE.gz
    compensation charges: {type: gauss,
                           rc: 0.21,
                           lmax: 2}
    cutoffs: {filter: 1.17,
              core: 0.83}
    valence states:
      #              energy  rcut
      - 2s(2.00)   -23.961   0.688
      - 2p(4.00)    -9.029   0.598
      -  s           3.251   0.688
      -  p          18.182   0.598
      -  d           0.000   0.619
  
    # LCAO basis set for O:
    #   Name: dzp
    #   File: /apps/Common/software/GPAW-setups/0.9.20000/O.dzp.basis.gz
    #   Number of radial functions: 5
    #   Number of spherical harmonics: 13
    #     l=0, rc=4.3438 Bohr: 2s-sz confined orbital
    #     l=1, rc=5.3906 Bohr: 2p-sz confined orbital
    #     l=0, rc=2.2969 Bohr: 2s-dz split-valence wave
    #     l=1, rc=2.8906 Bohr: 2p-dz split-valence wave
    #     l=2, rc=5.3906 Bohr: d-type Gaussian polarization
    #   Number of RI-basis functions 0

  H:
    name: Hydrogen
    id: d65de229564ff8ea4db303e23b6d1ecf
    Z: 1.0
    valence: 1
    core: 0
    charge: 0.0
    file: /apps/Common/software/GPAW-setups/0.9.20000/H.PBE.gz
    compensation charges: {type: gauss,
                           rc: 0.15,
                           lmax: 2}
    cutoffs: {filter: 0.85,
              core: 0.53}
    valence states:
      #              energy  rcut
      - 1s(1.00)    -6.494   0.476
      -  s          20.717   0.476
      -  p           0.000   0.476
  
    # LCAO basis set for H:
    #   Name: dzp
    #   File: /apps/Common/software/GPAW-setups/0.9.20000/H.dzp.basis.gz
    #   Number of radial functions: 3
    #   Number of spherical harmonics: 5
    #     l=0, rc=6.4219 Bohr: 1s-sz confined orbital
    #     l=0, rc=3.6094 Bohr: 1s-dz split-valence wave
    #     l=1, rc=6.4219 Bohr: p-type Gaussian polarization
    #   Number of RI-basis functions 0

  Na:
    name: Sodium
    id: d7ecbc49209718622bcbe287195dca2a
    Z: 11.0
    valence: 7
    core: 4
    charge: 0.0
    file: /apps/Common/software/GPAW-setups/0.9.20000/Na.PBE.gz
    compensation charges: {type: gauss,
                           rc: 0.37,
                           lmax: 2}
    cutoffs: {filter: 2.17,
              core: 2.59}
    valence states:
      #              energy  rcut
      - 3s(1.00)    -2.744   1.201
      - 2p(6.00)   -28.672   1.217
      - 3p(0.00)    -0.743   1.217
      -  s          24.468   1.201
      -  d           0.000   1.238
  
    # LCAO basis set for Na:
    #   Name: dzp
    #   File: /apps/Common/software/GPAW-setups/0.9.20000/Na.dzp.basis.gz
    #   Number of radial functions: 7
    #   Number of spherical harmonics: 17
    #     l=0, rc=11.4062 Bohr: 3s-sz confined orbital
    #     l=1, rc=3.6719 Bohr: 2p-sz confined orbital
    #     l=1, rc=15.9375 Bohr: 3p-sz confined orbital
    #     l=0, rc=6.9531 Bohr: 3s-dz split-valence wave
    #     l=1, rc=2.4219 Bohr: 2p-dz split-valence wave
    #     l=1, rc=10.0469 Bohr: 3p-dz split-valence wave
    #     l=1, rc=11.4062 Bohr: p-type Gaussian polarization
    #   Number of RI-basis functions 0

Reference energy: -53998.593513  # eV

Spin-paired calculation

Convergence criteria:
 Maximum [total energy] change in last 3 cyles: 0.0005 eV / electron
 Maximum integral of absolute [dens]ity change: 0.0001 electrons / valence electron
 Maximum integral of absolute [eigenst]ate change: 4e-08 eV^2 / valence electron
 Maximum number of scf [iter]ations: 333
 (Square brackets indicate name in SCF output, whereas a 'c' in
 the SCF output indicates the quantity has converged.)

Symmetries present (total): 1

  ( 1  0  0)
  ( 0  1  0)
  ( 0  0  1)

1 k-point (Gamma)
1 k-point in the irreducible part of the Brillouin zone
       k-points in crystal coordinates                weights
   0:     0.00000000    0.00000000    0.00000000          1/1

Wave functions: LCAO
  Diagonalizer: Serial LAPACK
  Atomic Correction: dense with blas
  Data-type: float
 

Occupation numbers: Fermi-Dirac:
  width: 0.1000  # eV
 

Eigensolver
   LCAO using direct dense diagonalizer 

Densities:
  Coarse grid: 44*44*44 grid
  Fine grid: 88*88*88 grid
  Total Charge: 1.000000 

Density mixing:
  Method: separate
  Backend: pulay
  Linear mixing parameter: 0.05
  old densities: 5
  Damping of long wavelength oscillations: 50 

Hamiltonian:
  XC and Coulomb potentials evaluated on a 88*88*88 grid
  Using the PBE Exchange-Correlation functional
  Interpolation: tri-quintic (5. degree polynomial)
  Poisson solver: FastPoissonSolver using
    Stencil: 6*3+1=19 point O(h^6) finite-difference Laplacian
    FFT axes: [0, 1, 2]
    FST axes: []
 

XC parameters: PBE with 2 nearest neighbor stencil

Memory estimate:
  Process memory now: 222.18 MiB
  Calculator: 9.56 MiB
    Density: 1.75 MiB
      Arrays: 0.53 MiB
      Localized functions: 1.02 MiB
      Mixer: 0.20 MiB
    Hamiltonian: 0.42 MiB
      Arrays: 0.35 MiB
      XC: 0.00 MiB
      Poisson: 0.00 MiB
      vbar: 0.07 MiB
    Wavefunctions: 7.39 MiB
      C [qnM]: 0.53 MiB
      S, T [2 x qmm]: 4.94 MiB
      P [aqMi]: 0.01 MiB
      BasisFunctions: 1.91 MiB
      Eigensolver: 0.00 MiB

Total number of cores used: 32
Domain decomposition: 4 x 4 x 2

Number of atoms: 73
Number of atomic orbitals: 569
Number of bands in calculation: 123
Number of valence electrons: 198
Bands to converge: occupied

... initialized

Initializing position-dependent things.

Density initialized from atomic densities
       .---------------------.  
      /|             H       |  
     / |      H              |  
    /  H        O         HH |  
   /   |     HH           O  |  
  /  O |H  H       O     H   |  
 *    H|  O    OHH  OHH      |  
 |     | H   H               |  
 | H  OO    H  O  HOH O      |  
 |   H |H   OHNa       H  H  |  
 |     |  H          H OH    |  
 |  H O.-------HO---H-OHO----.  
 |    /H  H  O H  HO H      /   
 |   H O     H H           /    
 |  /      H O      H     /     
 | /      O              /      
 |/     H               /       
 *----------------H----*        

Positions:
   0 O      3.263521    5.994378    0.699106    ( 0.0000,  0.0000,  0.0000)
   1 O      3.277067    9.776462    1.543872    ( 0.0000,  0.0000,  0.0000)
   2 O      0.869458    5.753535    0.083352    ( 0.0000,  0.0000,  0.0000)
   3 O      3.918036    3.251322    0.822464    ( 0.0000,  0.0000,  0.0000)
   4 O      6.504171    3.280039    1.887972    ( 0.0000,  0.0000,  0.0000)
   5 O      3.828747    6.464050    3.665655    ( 0.0000,  0.0000,  0.0000)
   6 O      1.948229    9.530431    4.254250    ( 0.0000,  0.0000,  0.0000)
   7 O      6.483503    7.774605    0.332603    ( 0.0000,  0.0000,  0.0000)
   8 O      6.970087    1.577220    8.602206    ( 0.0000,  0.0000,  0.0000)
   9 O      1.722809    6.902581    5.466568    ( 0.0000,  0.0000,  0.0000)
  10 O      2.346976    9.335499   -1.431951    ( 0.0000,  0.0000,  0.0000)
  11 O      0.947861    3.690242    4.973904    ( 0.0000,  0.0000,  0.0000)
  12 O      4.858750    2.555096   -1.527076    ( 0.0000,  0.0000,  0.0000)
  13 O      0.182541    5.672633    3.712059    ( 0.0000,  0.0000,  0.0000)
  14 O      0.765873    3.508051   -1.254374    ( 0.0000,  0.0000,  0.0000)
  15 O      5.218416    8.388752    2.504862    ( 0.0000,  0.0000,  0.0000)
  16 O     -0.394847    0.439326   -1.976073    ( 0.0000,  0.0000,  0.0000)
  17 O      6.605800    4.514876    6.225670    ( 0.0000,  0.0000,  0.0000)
  18 O      3.596524    2.536755    5.148812    ( 0.0000,  0.0000,  0.0000)
  19 O     -0.408932   10.469953    4.719916    ( 0.0000,  0.0000,  0.0000)
  20 O     -0.524887    6.665030   -2.163163    ( 0.0000,  0.0000,  0.0000)
  21 O      3.923565    7.382631   -1.445394    ( 0.0000,  0.0000,  0.0000)
  22 O      7.684101    5.707688    1.516909    ( 0.0000,  0.0000,  0.0000)
  23 O     -3.091416   10.508389    3.806092    ( 0.0000,  0.0000,  0.0000)
  24 H      2.259572    5.893666    0.633509    ( 0.0000,  0.0000,  0.0000)
  25 H      3.692756    5.063203    0.660657    ( 0.0000,  0.0000,  0.0000)
  26 H      3.497384   10.806002    1.558227    ( 0.0000,  0.0000,  0.0000)
  27 H      2.780371    9.558186    0.714564    ( 0.0000,  0.0000,  0.0000)
  28 H      1.134846    4.895901   -0.453415    ( 0.0000,  0.0000,  0.0000)
  29 H      0.140288    5.444132    0.677286    ( 0.0000,  0.0000,  0.0000)
  30 H      4.274187    2.948665   -0.104234    ( 0.0000,  0.0000,  0.0000)
  31 H      4.852904    3.355866    1.285584    ( 0.0000,  0.0000,  0.0000)
  32 H      6.855445    2.669187    1.193623    ( 0.0000,  0.0000,  0.0000)
  33 H      6.393839    2.654365    2.660225    ( 0.0000,  0.0000,  0.0000)
  34 H      3.312427    6.432139    2.837611    ( 0.0000,  0.0000,  0.0000)
  35 H      3.170058    6.606450    4.433087    ( 0.0000,  0.0000,  0.0000)
  36 H      2.299837    9.755676    3.320864    ( 0.0000,  0.0000,  0.0000)
  37 H      0.940157    9.775405    4.339360    ( 0.0000,  0.0000,  0.0000)
  38 H      5.921401    7.869940    1.180385    ( 0.0000,  0.0000,  0.0000)
  39 H      5.869754    7.656620   -0.437424    ( 0.0000,  0.0000,  0.0000)
  40 H      7.703124    1.340884    7.940153    ( 0.0000,  0.0000,  0.0000)
  41 H      6.731894    0.669933    8.991977    ( 0.0000,  0.0000,  0.0000)
  42 H      1.779535    7.846971    5.148602    ( 0.0000,  0.0000,  0.0000)
  43 H      0.916771    6.942072    6.117083    ( 0.0000,  0.0000,  0.0000)
  44 H      2.810942   10.156737   -1.575776    ( 0.0000,  0.0000,  0.0000)
  45 H      3.109260    8.569834   -1.528318    ( 0.0000,  0.0000,  0.0000)
  46 H      1.930542    3.590435    4.909708    ( 0.0000,  0.0000,  0.0000)
  47 H      0.600971    4.485436    4.300684    ( 0.0000,  0.0000,  0.0000)
  48 H      5.480393    3.257285   -1.938368    ( 0.0000,  0.0000,  0.0000)
  49 H      5.581306    1.974116   -1.080363    ( 0.0000,  0.0000,  0.0000)
  50 H      0.728665    6.344781    4.273395    ( 0.0000,  0.0000,  0.0000)
  51 H     -0.489794    5.855300    2.987359    ( 0.0000,  0.0000,  0.0000)
  52 H     -0.083415    3.909864   -1.160793    ( 0.0000,  0.0000,  0.0000)
  53 H      0.936829    3.551854   -2.259874    ( 0.0000,  0.0000,  0.0000)
  54 H      4.716147    7.615054    3.114691    ( 0.0000,  0.0000,  0.0000)
  55 H      4.420718    8.948544    2.128435    ( 0.0000,  0.0000,  0.0000)
  56 H      0.593566    0.411032   -1.699648    ( 0.0000,  0.0000,  0.0000)
  57 H     -0.306491    1.051115   -2.808300    ( 0.0000,  0.0000,  0.0000)
  58 H      6.641775    4.265424    5.289644    ( 0.0000,  0.0000,  0.0000)
  59 H      7.257725    5.241559    6.287018    ( 0.0000,  0.0000,  0.0000)
  60 H      3.944814    2.257024    6.051289    ( 0.0000,  0.0000,  0.0000)
  61 H      3.076927    1.795251    4.737287    ( 0.0000,  0.0000,  0.0000)
  62 H     -1.418878   10.414574    4.399118    ( 0.0000,  0.0000,  0.0000)
  63 H     -0.073928   11.438429    4.727450    ( 0.0000,  0.0000,  0.0000)
  64 H     -0.064228    6.338396   -1.333369    ( 0.0000,  0.0000,  0.0000)
  65 H     -0.768077    7.598738   -1.886545    ( 0.0000,  0.0000,  0.0000)
  66 H      3.390620    6.987563   -2.210168    ( 0.0000,  0.0000,  0.0000)
  67 H      3.542942    6.838366   -0.606878    ( 0.0000,  0.0000,  0.0000)
  68 H      6.916187    5.050139    1.408909    ( 0.0000,  0.0000,  0.0000)
  69 H      7.292949    6.558330    1.131199    ( 0.0000,  0.0000,  0.0000)
  70 H     -3.954945   10.779411    4.294617    ( 0.0000,  0.0000,  0.0000)
  71 H     -3.302097    9.632265    3.337269    ( 0.0000,  0.0000,  0.0000)
  72 Na     4.000000    4.000000    4.000000    ( 0.0000,  0.0000,  0.0000)

Unit cell:
           periodic     x           y           z      points  spacing
  1. axis:    yes    8.956370    0.000000    0.000000    44     0.2036
  2. axis:    yes    0.000000    8.956370    0.000000    44     0.2036
  3. axis:    yes    0.000000    0.000000    8.956370    44     0.2036

  Lengths:   8.956370   8.956370   8.956370
  Angles:   90.000000  90.000000  90.000000

Effective grid spacing dv^(1/3) = 0.2036

     iter     time        total  log10-change:
                         energy  eigst   dens
iter:   1 10:25:55  -350.167540       c
iter:   2 10:25:55  -346.355758       c -0.87
iter:   3 10:25:55  -334.478873       c -0.91
iter:   4 10:25:56  -335.203459       c -1.25
iter:   5 10:25:56  -334.342950       c -1.46
iter:   6 10:25:56  -334.347425       c -2.36
iter:   7 10:25:57  -334.331282c      c -2.42
iter:   8 10:25:57  -334.326475c      c -2.62
iter:   9 10:25:57  -334.326429c      c -3.41
iter:  10 10:25:58  -334.326283c      c -3.49
iter:  11 10:25:58  -334.326278c      c -3.87
iter:  12 10:25:58  -334.326259c      c -3.91
iter:  13 10:25:59  -334.326259c      c -4.36c

Converged after 13 iterations.

Dipole moment: (15.250639, -9.589045, -3.038581) |e|*Ang

Energy contributions relative to reference atoms: (reference = -53998.593513)

Kinetic:       +290.786742
Potential:     -331.014666
External:        +0.000000
XC:            -303.516536
Entropy (-ST):   -0.000000
Local:           +9.418202
--------------------------
Free energy:   -334.326259
Extrapolated:  -334.326259

 Band  Eigenvalues  Occupancy
    0    -25.51860    2.00000
    1    -25.42517    2.00000
    2    -25.40020    2.00000
    3    -22.58626    2.00000
    4    -22.49520    2.00000
    5    -21.85947    2.00000
    6    -21.76921    2.00000
    7    -21.74256    2.00000
    8    -21.60904    2.00000
    9    -21.52638    2.00000
   10    -21.40793    2.00000
   11    -21.35108    2.00000
   12    -21.27942    2.00000
   13    -21.23271    2.00000
   14    -21.13714    2.00000
   15    -21.08357    2.00000
   16    -20.97036    2.00000
   17    -20.90974    2.00000
   18    -20.76473    2.00000
   19    -20.68294    2.00000
   20    -20.60508    2.00000
   21    -20.48450    2.00000
   22    -20.23801    2.00000
   23    -20.19929    2.00000
   24    -20.12679    2.00000
   25    -20.05995    2.00000
   26    -19.76782    2.00000
   27    -10.79857    2.00000
   28    -10.52349    2.00000
   29     -9.92467    2.00000
   30     -9.75003    2.00000
   31     -9.64675    2.00000
   32     -9.46009    2.00000
   33     -9.42725    2.00000
   34     -9.37131    2.00000
   35     -9.29619    2.00000
   36     -9.25121    2.00000
   37     -9.21281    2.00000
   38     -9.20046    2.00000
   39     -9.15950    2.00000
   40     -9.02205    2.00000
   41     -8.81288    2.00000
   42     -8.74532    2.00000
   43     -8.70066    2.00000
   44     -8.66952    2.00000
   45     -8.60840    2.00000
   46     -8.55000    2.00000
   47     -8.40611    2.00000
   48     -8.30702    2.00000
   49     -8.21015    2.00000
   50     -8.05375    2.00000
   51     -7.50011    2.00000
   52     -7.25783    2.00000
   53     -7.07920    2.00000
   54     -6.84189    2.00000
   55     -6.71034    2.00000
   56     -6.57209    2.00000
   57     -6.43477    2.00000
   58     -6.31668    2.00000
   59     -6.27445    2.00000
   60     -6.17122    2.00000
   61     -6.07487    2.00000
   62     -5.93625    2.00000
   63     -5.70522    2.00000
   64     -5.63114    2.00000
   65     -5.62450    2.00000
   66     -5.45762    2.00000
   67     -5.36471    2.00000
   68     -5.21294    2.00000
   69     -5.17441    2.00000
   70     -5.11075    2.00000
   71     -4.87047    2.00000
   72     -4.78125    2.00000
   73     -4.63534    2.00000
   74     -4.46848    2.00000
   75     -4.27995    2.00000
   76     -4.05174    2.00000
   77     -3.99277    2.00000
   78     -3.94046    2.00000
   79     -3.69378    2.00000
   80     -3.64792    2.00000
   81     -3.62189    2.00000
   82     -3.59083    2.00000
   83     -3.54648    2.00000
   84     -3.52564    2.00000
   85     -3.48230    2.00000
   86     -3.44088    2.00000
   87     -3.37149    2.00000
   88     -3.27066    2.00000
   89     -3.26169    2.00000
   90     -3.21384    2.00000
   91     -3.19127    2.00000
   92     -3.12724    2.00000
   93     -3.10796    2.00000
   94     -2.99964    2.00000
   95     -2.91242    2.00000
   96     -2.84158    2.00000
   97     -2.67372    2.00000
   98     -2.49263    2.00000
   99      1.61813    0.00000
  100      3.54872    0.00000
  101      3.75087    0.00000
  102      3.93331    0.00000
  103      4.11634    0.00000
  104      4.59407    0.00000
  105      4.87902    0.00000
  106      5.24788    0.00000
  107      5.66236    0.00000
  108      5.91592    0.00000
  109      5.98028    0.00000
  110      6.04087    0.00000
  111      6.18944    0.00000
  112      6.26120    0.00000
  113      6.36960    0.00000
  114      6.80426    0.00000
  115      6.87672    0.00000
  116      7.00559    0.00000
  117      7.46503    0.00000
  118      7.59324    0.00000
  119      7.72742    0.00000
  120      7.90809    0.00000
  121      8.05477    0.00000
  122      8.22380    0.00000

Fermi level: -0.42585

Gap: 4.111 eV
Transition (v -> c):
  (s=0, k=0, n=98, [0.00, 0.00, 0.00]) -> (s=0, k=0, n=99, [0.00, 0.00, 0.00])

Forces in eV/Ang:
  0 O     1.75094    0.00153    0.61787
  1 O     0.12511    0.89833    1.39165
  2 O     0.85018   -0.48446   -1.40465
  3 O     1.40303    0.47672    0.94773
  4 O    -0.48000    0.62970   -0.02414
  5 O     0.30198   -0.58483    1.44125
  6 O     0.75897    0.17761   -0.50171
  7 O     0.37202    0.28669   -0.10384
  8 O    -1.25845    0.15156    1.11949
  9 O     0.33272    0.28611   -0.20596
 10 O    -0.25374   -1.62104    0.44269
 11 O    -0.04374    0.32995   -0.17173
 12 O     0.21035    0.38761   -0.58275
 13 O     0.78515   -0.62482    0.72616
 14 O     2.37184   -0.86646   -0.47067
 15 O    -1.19456   -1.16657    1.43583
 16 O     1.18222    0.18197    0.29834
 17 O    -0.98097   -0.86075    0.36591
 18 O     0.02763   -1.05733    0.83590
 19 O    -1.83352    0.23470   -0.90586
 20 O     0.21165   -0.17585    0.10898
 21 O    -0.62449   -0.95204   -0.07047
 22 O    -1.04254   -0.37651    0.13265
 23 O    -0.34278    1.25414    0.92264
 24 H    -0.60553   -0.27586   -0.15942
 25 H    -0.87125    0.58544   -0.09548
 26 H    -0.36447   -1.08092   -1.23580
 27 H    -0.14227    0.19523   -0.45836
 28 H    -0.32919    0.40943    0.38315
 29 H    -0.81085    0.09275    0.60274
 30 H    -0.46471    0.26460   -0.03919
 31 H    -0.57782   -0.22778   -0.42067
 32 H     0.31309   -0.36420   -0.97381
 33 H    -0.25421   -0.32873    0.46866
 34 H    -0.73806   -0.06980   -1.08782
 35 H     0.10841    0.12318   -0.63112
 36 H    -0.97358   -0.73285    0.37920
 37 H     0.55166    0.28538   -0.50679
 38 H    -0.42768    0.36373   -0.03127
 39 H    -0.24299   -0.28348    0.12840
 40 H     0.50900   -0.59112   -0.32765
 41 H     0.36242    0.10468   -0.23954
 42 H     0.16788    0.51986   -0.17987
 43 H    -0.27611   -0.41149   -0.08999
 44 H     0.57720    1.47180   -0.18206
 45 H    -0.74070    0.63830    0.51492
 46 H    -0.44106   -0.32524    0.10188
 47 H     0.05658    0.09661    0.35410
 48 H    -0.41804   -0.05585    0.46885
 49 H     0.66928   -0.31195    0.01844
 50 H    -0.88577   -0.10515   -0.71049
 51 H     0.13087    0.41325   -0.16621
 52 H    -2.37481    0.54276   -0.05546
 53 H    -0.33516    0.19671    0.31836
 54 H     1.06147    1.70307   -1.16645
 55 H     0.14209   -0.52832   -0.30073
 56 H    -0.44920   -0.03403    0.19505
 57 H    -0.59290   -0.69232    0.05339
 58 H     0.37179   -0.28464   -0.75476
 59 H     0.63745    1.15800    0.31989
 60 H     0.28974   -0.02072    0.55109
 61 H    -1.22883   -1.25559    0.37977
 62 H     1.60858    0.21903    0.57315
 63 H     0.17159   -0.22274   -0.08264
 64 H     0.10999   -0.17663    0.56922
 65 H    -0.01014    0.41090   -0.40088
 66 H     0.46694    0.11346    0.50815
 67 H     0.55759    0.28452   -0.42090
 68 H     1.02268    0.15162    0.47163
 69 H     0.11194    0.10838   -0.44882
 70 H     1.11813   -0.50559   -0.15763
 71 H    -0.13419   -0.89166   -0.37050
 72 Na    0.84083    2.76151   -1.96943

System changes: positions 

Initializing position-dependent things.

Density initialized from wave functions
       .---------------------.  
      /|             H       |  
     / |      H              |  
    /  H        O         HH |  
   /   |     HH           O  |  
  /  O |H  H       O     H   |  
 *    H|  O    OHH  OHH      |  
 |     H H   H               |  
 | H  OO    H  O  HOH O      |  
 |   H |H   OHNa       H  H  |  
 |     |  H          H O H   |  
 |  H O.------H-O---H-OHO----.  
 |    /H   H O H  HO H      /   
 |   H O      HH           /    
 |  /      H O      H     /     
 | /      O              /      
 |/     H         H     /       
 *---------------------*        

Positions:
   0 O      3.261954    5.993629    0.698578    ( 0.0000,  0.0000,  0.0000)
   1 O      3.277969    9.779094    1.542508    ( 0.0000,  0.0000,  0.0000)
   2 O      0.870096    5.756700    0.082607    ( 0.0000,  0.0000,  0.0000)
   3 O      3.917053    3.249955    0.821053    ( 0.0000,  0.0000,  0.0000)
   4 O      6.502368    3.280576    1.888381    ( 0.0000,  0.0000,  0.0000)
   5 O      3.832199    6.461692    3.662953    ( 0.0000,  0.0000,  0.0000)
   6 O      1.947790    9.528046    4.251857    ( 0.0000,  0.0000,  0.0000)
   7 O      6.485460    7.774351    0.334190    ( 0.0000,  0.0000,  0.0000)
   8 O      6.968474    1.575790    8.600803    ( 0.0000,  0.0000,  0.0000)
   9 O      1.724747    6.905448    5.464416    ( 0.0000,  0.0000,  0.0000)
  10 O      2.344323    9.329421   -1.434485    ( 0.0000,  0.0000,  0.0000)
  11 O      0.948849    3.687803    4.974518    ( 0.0000,  0.0000,  0.0000)
  12 O      4.857701    2.557915   -1.526430    ( 0.0000,  0.0000,  0.0000)
  13 O      0.181449    5.670638    3.714182    ( 0.0000,  0.0000,  0.0000)
  14 O      0.767745    3.509377   -1.255124    ( 0.0000,  0.0000,  0.0000)
  15 O      5.218349    8.391026    2.505616    ( 0.0000,  0.0000,  0.0000)
  16 O     -0.393951    0.439192   -1.976612    ( 0.0000,  0.0000,  0.0000)
  17 O      6.604557    4.513781    6.227442    ( 0.0000,  0.0000,  0.0000)
  18 O      3.594670    2.534005    5.149710    ( 0.0000,  0.0000,  0.0000)
  19 O     -0.407974   10.471469    4.717435    ( 0.0000,  0.0000,  0.0000)
  20 O     -0.526384    6.665793   -2.164699    ( 0.0000,  0.0000,  0.0000)
  21 O      3.923317    7.382689   -1.441297    ( 0.0000,  0.0000,  0.0000)
  22 O      7.682326    5.715276    1.517921    ( 0.0000,  0.0000,  0.0000)
  23 O     -3.089570   10.507242    3.804461    ( 0.0000,  0.0000,  0.0000)
  24 H      2.264266    5.898055    0.629822    ( 0.0000,  0.0000,  0.0000)
  25 H      3.704732    5.078732    0.662313    ( 0.0000,  0.0000,  0.0000)
  26 H      3.477847   10.797632    1.564831    ( 0.0000,  0.0000,  0.0000)
  27 H      2.769995    9.572037    0.702555    ( 0.0000,  0.0000,  0.0000)
  28 H      1.152782    4.881734   -0.467508    ( 0.0000,  0.0000,  0.0000)
  29 H      0.145222    5.451469    0.687569    ( 0.0000,  0.0000,  0.0000)
  30 H      4.284541    2.943170   -0.105861    ( 0.0000,  0.0000,  0.0000)
  31 H      4.850852    3.364901    1.280775    ( 0.0000,  0.0000,  0.0000)
  32 H      6.861473    2.669346    1.187187    ( 0.0000,  0.0000,  0.0000)
  33 H      6.388267    2.663307    2.671385    ( 0.0000,  0.0000,  0.0000)
  34 H      3.322142    6.424899    2.827994    ( 0.0000,  0.0000,  0.0000)
  35 H      3.161520    6.612358    4.448603    ( 0.0000,  0.0000,  0.0000)
  36 H      2.286839    9.744015    3.336442    ( 0.0000,  0.0000,  0.0000)
  37 H      0.941752    9.779561    4.346802    ( 0.0000,  0.0000,  0.0000)
  38 H      5.921832    7.870958    1.190055    ( 0.0000,  0.0000,  0.0000)
  39 H      5.854789    7.658430   -0.429979    ( 0.0000,  0.0000,  0.0000)
  40 H      7.708139    1.343712    7.947692    ( 0.0000,  0.0000,  0.0000)
  41 H      6.731051    0.676399    9.001460    ( 0.0000,  0.0000,  0.0000)
  42 H      1.782336    7.847792    5.149398    ( 0.0000,  0.0000,  0.0000)
  43 H      0.911384    6.935711    6.131757    ( 0.0000,  0.0000,  0.0000)
  44 H      2.803454   10.171411   -1.578552    ( 0.0000,  0.0000,  0.0000)
  45 H      3.121064    8.565924   -1.521602    ( 0.0000,  0.0000,  0.0000)
  46 H      1.931794    3.592039    4.926663    ( 0.0000,  0.0000,  0.0000)
  47 H      0.606267    4.485356    4.300320    ( 0.0000,  0.0000,  0.0000)
  48 H      5.479481    3.244177   -1.933921    ( 0.0000,  0.0000,  0.0000)
  49 H      5.591827    1.965893   -1.087637    ( 0.0000,  0.0000,  0.0000)
  50 H      0.733745    6.348911    4.273308    ( 0.0000,  0.0000,  0.0000)
  51 H     -0.519704    5.834244    2.983420    ( 0.0000,  0.0000,  0.0000)
  52 H     -0.088140    3.912371   -1.164014    ( 0.0000,  0.0000,  0.0000)
  53 H      0.947972    3.550840   -2.248991    ( 0.0000,  0.0000,  0.0000)
  54 H      4.711031    7.629840    3.121799    ( 0.0000,  0.0000,  0.0000)
  55 H      4.432331    8.944995    2.119139    ( 0.0000,  0.0000,  0.0000)
  56 H      0.599783    0.417104   -1.683004    ( 0.0000,  0.0000,  0.0000)
  57 H     -0.296968    1.027951   -2.794998    ( 0.0000,  0.0000,  0.0000)
  58 H      6.643485    4.274027    5.288820    ( 0.0000,  0.0000,  0.0000)
  59 H      7.258389    5.234154    6.281326    ( 0.0000,  0.0000,  0.0000)
  60 H      3.941836    2.260014    6.059947    ( 0.0000,  0.0000,  0.0000)
  61 H      3.080239    1.783905    4.741417    ( 0.0000,  0.0000,  0.0000)
  62 H     -1.413930   10.400670    4.399008    ( 0.0000,  0.0000,  0.0000)
  63 H     -0.060094   11.437431    4.724258    ( 0.0000,  0.0000,  0.0000)
  64 H     -0.066165    6.330595   -1.322897    ( 0.0000,  0.0000,  0.0000)
  65 H     -0.770965    7.597152   -1.877666    ( 0.0000,  0.0000,  0.0000)
  66 H      3.392176    6.983273   -2.216252    ( 0.0000,  0.0000,  0.0000)
  67 H      3.550308    6.852220   -0.604536    ( 0.0000,  0.0000,  0.0000)
  68 H      6.920370    5.045351    1.399526    ( 0.0000,  0.0000,  0.0000)
  69 H      7.294329    6.573815    1.139563    ( 0.0000,  0.0000,  0.0000)
  70 H     -3.957025   10.770474    4.290687    ( 0.0000,  0.0000,  0.0000)
  71 H     -3.313525    9.628955    3.338155    ( 0.0000,  0.0000,  0.0000)
  72 Na     4.000062    4.000137    4.000083    ( 0.0000,  0.0000,  0.0000)

Unit cell:
           periodic     x           y           z      points  spacing
  1. axis:    yes    8.956370    0.000000    0.000000    44     0.2036
  2. axis:    yes    0.000000    8.956370    0.000000    44     0.2036
  3. axis:    yes    0.000000    0.000000    8.956370    44     0.2036

  Lengths:   8.956370   8.956370   8.956370
  Angles:   90.000000  90.000000  90.000000

Effective grid spacing dv^(1/3) = 0.2036

     iter     time        total  log10-change:
                         energy  eigst   dens
iter:   1 10:26:00  -334.370720       c
iter:   2 10:26:00  -334.364456       c -2.50
iter:   3 10:26:01  -334.344954c      c -2.55
iter:   4 10:26:01  -334.342354c      c -2.79
iter:   5 10:26:01  -334.342323c      c -3.37
iter:   6 10:26:02  -334.342267c      c -3.43
iter:   7 10:26:02  -334.342260c      c -3.83
iter:   8 10:26:02  -334.342260c      c -4.46c

Converged after 8 iterations.

Dipole moment: (15.073060, -9.604806, -3.038767) |e|*Ang

Energy contributions relative to reference atoms: (reference = -53998.593513)

Kinetic:       +287.204436
Potential:     -328.427385
External:        +0.000000
XC:            -302.565381
Entropy (-ST):   -0.000000
Local:           +9.446071
--------------------------
Free energy:   -334.342260
Extrapolated:  -334.342260

 Band  Eigenvalues  Occupancy
    0    -25.46797    2.00000
    1    -25.37824    2.00000
    2    -25.35422    2.00000
    3    -22.49421    2.00000
    4    -22.36425    2.00000
    5    -21.84222    2.00000
    6    -21.73713    2.00000
    7    -21.71307    2.00000
    8    -21.60919    2.00000
    9    -21.51316    2.00000
   10    -21.35955    2.00000
   11    -21.32444    2.00000
   12    -21.24304    2.00000
   13    -21.22738    2.00000
   14    -21.17746    2.00000
   15    -21.05395    2.00000
   16    -20.96873    2.00000
   17    -20.90945    2.00000
   18    -20.72589    2.00000
   19    -20.67433    2.00000
   20    -20.64192    2.00000
   21    -20.49402    2.00000
   22    -20.24879    2.00000
   23    -20.18663    2.00000
   24    -20.07115    2.00000
   25    -19.96528    2.00000
   26    -19.81345    2.00000
   27    -10.72554    2.00000
   28    -10.39744    2.00000
   29     -9.81356    2.00000
   30     -9.72119    2.00000
   31     -9.61486    2.00000
   32     -9.42799    2.00000
   33     -9.40023    2.00000
   34     -9.34042    2.00000
   35     -9.30919    2.00000
   36     -9.26228    2.00000
   37     -9.20408    2.00000
   38     -9.18856    2.00000
   39     -9.13211    2.00000
   40     -9.02708    2.00000
   41     -8.83824    2.00000
   42     -8.80943    2.00000
   43     -8.70163    2.00000
   44     -8.66315    2.00000
   45     -8.57917    2.00000
   46     -8.52702    2.00000
   47     -8.46082    2.00000
   48     -8.30192    2.00000
   49     -8.21910    2.00000
   50     -8.09297    2.00000
   51     -7.49732    2.00000
   52     -7.20748    2.00000
   53     -7.09100    2.00000
   54     -6.83457    2.00000
   55     -6.69932    2.00000
   56     -6.53351    2.00000
   57     -6.41948    2.00000
   58     -6.28908    2.00000
   59     -6.26800    2.00000
   60     -6.16246    2.00000
   61     -6.06232    2.00000
   62     -5.89993    2.00000
   63     -5.69525    2.00000
   64     -5.62801    2.00000
   65     -5.58896    2.00000
   66     -5.46738    2.00000
   67     -5.38527    2.00000
   68     -5.23191    2.00000
   69     -5.15984    2.00000
   70     -5.12762    2.00000
   71     -4.86066    2.00000
   72     -4.74657    2.00000
   73     -4.61535    2.00000
   74     -4.47185    2.00000
   75     -4.27278    2.00000
   76     -4.04207    2.00000
   77     -3.98347    2.00000
   78     -3.90301    2.00000
   79     -3.68537    2.00000
   80     -3.64491    2.00000
   81     -3.61385    2.00000
   82     -3.58050    2.00000
   83     -3.52219    2.00000
   84     -3.50076    2.00000
   85     -3.46205    2.00000
   86     -3.41217    2.00000
   87     -3.37626    2.00000
   88     -3.29328    2.00000
   89     -3.24274    2.00000
   90     -3.22504    2.00000
   91     -3.18684    2.00000
   92     -3.15196    2.00000
   93     -3.13939    2.00000
   94     -2.99332    2.00000
   95     -2.94366    2.00000
   96     -2.77215    2.00000
   97     -2.70788    2.00000
   98     -2.54168    2.00000
   99      1.63520    0.00000
  100      3.58665    0.00000
  101      3.72930    0.00000
  102      3.92594    0.00000
  103      4.12147    0.00000
  104      4.57954    0.00000
  105      4.89779    0.00000
  106      5.24730    0.00000
  107      5.66039    0.00000
  108      5.88476    0.00000
  109      5.93909    0.00000
  110      6.01761    0.00000
  111      6.15662    0.00000
  112      6.28459    0.00000
  113      6.36246    0.00000
  114      6.79977    0.00000
  115      6.83300    0.00000
  116      7.01019    0.00000
  117      7.42227    0.00000
  118      7.59511    0.00000
  119      7.67325    0.00000
  120      7.87852    0.00000
  121      8.03626    0.00000
  122      8.18111    0.00000

Fermi level: -0.44071

Gap: 4.177 eV
Transition (v -> c):
  (s=0, k=0, n=98, [0.00, 0.00, 0.00]) -> (s=0, k=0, n=99, [0.00, 0.00, 0.00])

Forces in eV/Ang:
  0 O     1.95337    0.38238    0.67424
  1 O    -0.24900    0.41787    0.88270
  2 O     0.97778   -0.91102   -1.71064
  3 O     1.46030    0.49012    0.74497
  4 O    -0.35683    0.47338   -0.18395
  5 O    -0.06374   -0.42867    1.88324
  6 O     0.50918   -0.00145    0.25471
  7 O     0.02747    0.31308   -0.08165
  8 O    -1.27294    0.31560    1.12908
  9 O     0.11951    0.12209    0.06331
 10 O     0.19801   -0.91029    0.33989
 11 O    -0.05372    0.29198   -0.12296
 12 O     0.24724   -0.13135   -0.31385
 13 O     0.43744   -0.49674    0.35739
 14 O     2.02523   -0.71555   -0.03116
 15 O    -1.02950   -1.20664    1.47789
 16 O     1.43119   -0.19805    1.00051
 17 O    -1.04629   -0.94862    0.29730
 18 O     0.02250   -1.15389    0.95295
 19 O    -1.65747    0.12932   -0.85323
 20 O     0.45371   -0.25877    0.46915
 21 O    -0.62865   -0.87351   -0.50496
 22 O    -1.11151   -0.46331    0.20413
 23 O    -0.48801    1.12071    0.90015
 24 H    -0.81917   -0.36029   -0.17145
 25 H    -0.82693    0.28235   -0.12048
 26 H    -0.20779   -0.71196   -1.17694
 27 H     0.12358    0.25554   -0.02811
 28 H    -0.60294    0.85797    0.75852
 29 H    -0.71586    0.04887    0.50792
 30 H    -0.55238    0.31912    0.10192
 31 H    -0.59459   -0.26756   -0.36584
 32 H     0.16500   -0.20605   -0.65170
 33 H    -0.20361   -0.32513    0.29659
 34 H    -0.73046   -0.06209   -0.96017
 35 H     0.45600   -0.00837   -1.19814
 36 H    -0.67388   -0.53891   -0.35859
 37 H     0.49326    0.27159   -0.51105
 38 H    -0.27914    0.34421   -0.19246
 39 H    -0.04652   -0.25696    0.28467
 40 H     0.51498   -0.63305   -0.39592
 41 H     0.35375   -0.01668   -0.24086
 42 H     0.12117    0.63350   -0.18934
 43 H    -0.04810   -0.38553   -0.36393
 44 H     0.19215    0.71790   -0.05468
 45 H    -0.82643    0.69117    0.48539
 46 H    -0.37226   -0.32910    0.05914
 47 H     0.02251    0.15762    0.33578
 48 H    -0.20438    0.27283    0.27386
 49 H     0.41265   -0.15733   -0.05332
 50 H    -1.00496   -0.20737   -0.79230
 51 H     0.60658    0.38385    0.24345
 52 H    -2.02400    0.39376   -0.12100
 53 H    -0.32704    0.21212   -0.05644
 54 H     1.03039    1.54615   -1.16740
 55 H    -0.04598   -0.38440   -0.34881
 56 H    -0.68998   -0.07089    0.06822
 57 H    -0.55253   -0.24844   -0.49026
 58 H     0.32554   -0.33822   -0.77212
 59 H     0.74847    1.30088    0.38383
 60 H     0.26205    0.03190    0.37968
 61 H    -1.18836   -1.14954    0.39885
 62 H     1.57838    0.33082    0.53358
 63 H     0.06921   -0.23152   -0.08324
 64 H    -0.05601   -0.05136    0.24348
 65 H     0.01107    0.35819   -0.44457
 66 H     0.58991    0.22217    0.78382
 67 H     0.42215    0.10198   -0.27946
 68 H     1.09499    0.30527    0.49597
 69 H     0.09738   -0.03232   -0.44369
 70 H     1.14295   -0.43194   -0.12727
 71 H    -0.01410   -0.78658   -0.36707
 72 Na    0.82122    2.71246   -1.94773

System changes: positions 

Initializing position-dependent things.

Density initialized from wave functions
       .---------------------.  
      /|            H        |  
     / |      H              |  
    /  H        O         HH |  
   /   |      H           O  |  
  /  O |H  H       O     H   |  
 *    H|  O    OHH  OHH      |  
 |     H H   H               |  
 | H  OO    H  O  HOH O      |  
 |   OH|H   OHNa       H  H  |  
 |     |  H          H O H   |  
 |  H O.------H-O----HOHO----.  
 |   H/H   H O H  HO H      /   
 |   / O      HH           /    
 |  /      H O      H     /     
 | /      O              /      
 |/     H         H     /       
 *---------------------*        

Positions:
   0 O      3.260682    5.992936    0.698151    ( 0.0000,  0.0000,  0.0000)
   1 O      3.278833    9.781788    1.541277    ( 0.0000,  0.0000,  0.0000)
   2 O      0.870882    5.759727    0.081604    ( 0.0000,  0.0000,  0.0000)
   3 O      3.916290    3.248662    0.819754    ( 0.0000,  0.0000,  0.0000)
   4 O      6.500511    3.281184    1.888761    ( 0.0000,  0.0000,  0.0000)
   5 O      3.835640    6.459269    3.660536    ( 0.0000,  0.0000,  0.0000)
   6 O      1.947429    9.525660    4.249503    ( 0.0000,  0.0000,  0.0000)
   7 O      6.487422    7.774145    0.335765    ( 0.0000,  0.0000,  0.0000)
   8 O      6.966669    1.574409    8.599570    ( 0.0000,  0.0000,  0.0000)
   9 O      1.726702    6.908334    5.462275    ( 0.0000,  0.0000,  0.0000)
  10 O      2.341699    9.323206   -1.436967    ( 0.0000,  0.0000,  0.0000)
  11 O      0.949828    3.685407    4.975114    ( 0.0000,  0.0000,  0.0000)
  12 O      4.856691    2.560715   -1.525831    ( 0.0000,  0.0000,  0.0000)
  13 O      0.180422    5.668568    3.716358    ( 0.0000,  0.0000,  0.0000)
  14 O      0.769922    3.510595   -1.255879    ( 0.0000,  0.0000,  0.0000)
  15 O      5.218126    8.393118    2.506593    ( 0.0000,  0.0000,  0.0000)
  16 O     -0.392839    0.439029   -1.977001    ( 0.0000,  0.0000,  0.0000)
  17 O      6.603156    4.512542    6.229259    ( 0.0000,  0.0000,  0.0000)
  18 O      3.592819    2.531082    5.150753    ( 0.0000,  0.0000,  0.0000)
  19 O     -0.407267   10.473004    4.714826    ( 0.0000,  0.0000,  0.0000)
  20 O     -0.527814    6.666517   -2.166164    ( 0.0000,  0.0000,  0.0000)
  21 O      3.922973    7.382615   -1.437277    ( 0.0000,  0.0000,  0.0000)
  22 O      7.680384    5.722794    1.518964    ( 0.0000,  0.0000,  0.0000)
  23 O     -3.087798   10.506265    3.802965    ( 0.0000,  0.0000,  0.0000)
  24 H      2.267000    5.901580    0.625726    ( 0.0000,  0.0000,  0.0000)
  25 H      3.714729    5.094936    0.663682    ( 0.0000,  0.0000,  0.0000)
  26 H      3.457814   10.787559    1.568619    ( 0.0000,  0.0000,  0.0000)
  27 H      2.759915    9.586499    0.690479    ( 0.0000,  0.0000,  0.0000)
  28 H      1.169275    4.869621   -0.479785    ( 0.0000,  0.0000,  0.0000)
  29 H      0.148444    5.458923    0.699067    ( 0.0000,  0.0000,  0.0000)
  30 H      4.293573    2.938439   -0.107243    ( 0.0000,  0.0000,  0.0000)
  31 H      4.847378    3.373295    1.275091    ( 0.0000,  0.0000,  0.0000)
  32 H      6.867895    2.669013    1.179191    ( 0.0000,  0.0000,  0.0000)
  33 H      6.382206    2.671470    2.683254    ( 0.0000,  0.0000,  0.0000)
  34 H      3.330110    6.417510    2.816079    ( 0.0000,  0.0000,  0.0000)
  35 H      3.154074    6.618246    4.461253    ( 0.0000,  0.0000,  0.0000)
  36 H      2.272228    9.731065    3.351162    ( 0.0000,  0.0000,  0.0000)
  37 H      0.944527    9.784366    4.353021    ( 0.0000,  0.0000,  0.0000)
  38 H      5.921596    7.872800    1.199264    ( 0.0000,  0.0000,  0.0000)
  39 H      5.839713    7.659625   -0.421853    ( 0.0000,  0.0000,  0.0000)
  40 H      7.714386    1.345026    7.954283    ( 0.0000,  0.0000,  0.0000)
  41 H      6.731055    0.682824    9.010367    ( 0.0000,  0.0000,  0.0000)
  42 H      1.785428    7.850129    5.149741    ( 0.0000,  0.0000,  0.0000)
  43 H      0.905883    6.928427    6.145559    ( 0.0000,  0.0000,  0.0000)
  44 H      2.796426   10.187802   -1.581459    ( 0.0000,  0.0000,  0.0000)
  45 H      3.130890    8.563668   -1.513726    ( 0.0000,  0.0000,  0.0000)
  46 H      1.932155    3.592855    4.943760    ( 0.0000,  0.0000,  0.0000)
  47 H      0.611617    4.485654    4.300759    ( 0.0000,  0.0000,  0.0000)
  48 H      5.478080    3.231723   -1.928819    ( 0.0000,  0.0000,  0.0000)
  49 H      5.603335    1.957293   -1.095039    ( 0.0000,  0.0000,  0.0000)
  50 H      0.736420    6.352544    4.271324    ( 0.0000,  0.0000,  0.0000)
  51 H     -0.548163    5.814107    2.980063    ( 0.0000,  0.0000,  0.0000)
  52 H     -0.097708    3.915819   -1.167525    ( 0.0000,  0.0000,  0.0000)
  53 H      0.958332    3.550333   -2.238243    ( 0.0000,  0.0000,  0.0000)
  54 H      4.708382    7.648325    3.126112    ( 0.0000,  0.0000,  0.0000)
  55 H      4.443834    8.940527    2.109008    ( 0.0000,  0.0000,  0.0000)
  56 H      0.604349    0.423006   -1.666198    ( 0.0000,  0.0000,  0.0000)
  57 H     -0.288768    1.004193   -2.782869    ( 0.0000,  0.0000,  0.0000)
  58 H      6.645974    4.281820    5.286150    ( 0.0000,  0.0000,  0.0000)
  59 H      7.260843    5.229861    6.276552    ( 0.0000,  0.0000,  0.0000)
  60 H      3.939486    2.263081    6.069513    ( 0.0000,  0.0000,  0.0000)
  61 H      3.080706    1.769810    4.746501    ( 0.0000,  0.0000,  0.0000)
  62 H     -1.405205   10.387559    4.400176    ( 0.0000,  0.0000,  0.0000)
  63 H     -0.046095   11.435880    4.720867    ( 0.0000,  0.0000,  0.0000)
  64 H     -0.068235    6.322671   -1.311843    ( 0.0000,  0.0000,  0.0000)
  65 H     -0.773826    7.596422   -1.869850    ( 0.0000,  0.0000,  0.0000)
  66 H      3.395144    6.979516   -2.220460    ( 0.0000,  0.0000,  0.0000)
  67 H      3.558683    6.866319   -0.602864    ( 0.0000,  0.0000,  0.0000)
  68 H      6.927174    5.041294    1.391329    ( 0.0000,  0.0000,  0.0000)
  69 H      7.295941    6.589222    1.146865    ( 0.0000,  0.0000,  0.0000)
  70 H     -3.956370   10.760504    4.286452    ( 0.0000,  0.0000,  0.0000)
  71 H     -3.324987    9.623763    3.338162    ( 0.0000,  0.0000,  0.0000)
  72 Na     4.000211    4.000559    3.999962    ( 0.0000,  0.0000,  0.0000)

Unit cell:
           periodic     x           y           z      points  spacing
  1. axis:    yes    8.956370    0.000000    0.000000    44     0.2036
  2. axis:    yes    0.000000    8.956370    0.000000    44     0.2036
  3. axis:    yes    0.000000    0.000000    8.956370    44     0.2036

  Lengths:   8.956370   8.956370   8.956370
  Angles:   90.000000  90.000000  90.000000

Effective grid spacing dv^(1/3) = 0.2036

     iter     time        total  log10-change:
                         energy  eigst   dens
iter:   1 10:26:04  -334.307855       c
iter:   2 10:26:04  -334.301449       c -2.50
iter:   3 10:26:05  -334.281692c      c -2.54
iter:   4 10:26:05  -334.279051c      c -2.79
iter:   5 10:26:05  -334.279018c      c -3.36
iter:   6 10:26:06  -334.278961c      c -3.43
iter:   7 10:26:06  -334.278954c      c -3.82
iter:   8 10:26:06  -334.278954c      c -4.45c

Converged after 8 iterations.

Dipole moment: (15.001849, -9.602282, -3.005235) |e|*Ang

Energy contributions relative to reference atoms: (reference = -53998.593513)

Kinetic:       +283.908032
Potential:     -325.952209
External:        +0.000000
XC:            -301.680244
Entropy (-ST):   -0.000000
Local:           +9.445467
--------------------------
Free energy:   -334.278954
Extrapolated:  -334.278954

 Band  Eigenvalues  Occupancy
    0    -25.39985    2.00000
    1    -25.31561    2.00000
    2    -25.29234    2.00000
    3    -22.40390    2.00000
    4    -22.19079    2.00000
    5    -21.82693    2.00000
    6    -21.69635    2.00000
    7    -21.68718    2.00000
    8    -21.59217    2.00000
    9    -21.49723    2.00000
   10    -21.34923    2.00000
   11    -21.31513    2.00000
   12    -21.23972    2.00000
   13    -21.22060    2.00000
   14    -21.18995    2.00000
   15    -21.02847    2.00000
   16    -20.97751    2.00000
   17    -20.93463    2.00000
   18    -20.73844    2.00000
   19    -20.69287    2.00000
   20    -20.60785    2.00000
   21    -20.49436    2.00000
   22    -20.31449    2.00000
   23    -20.13148    2.00000
   24    -20.09711    2.00000
   25    -19.84518    2.00000
   26    -19.80885    2.00000
   27    -10.61914    2.00000
   28    -10.25434    2.00000
   29     -9.75659    2.00000
   30     -9.71464    2.00000
   31     -9.55824    2.00000
   32     -9.40467    2.00000
   33     -9.38112    2.00000
   34     -9.34941    2.00000
   35     -9.30258    2.00000
   36     -9.27736    2.00000
   37     -9.17554    2.00000
   38     -9.16189    2.00000
   39     -9.08973    2.00000
   40     -9.01412    2.00000
   41     -8.89766    2.00000
   42     -8.88606    2.00000
   43     -8.70484    2.00000
   44     -8.65071    2.00000
   45     -8.59912    2.00000
   46     -8.52590    2.00000
   47     -8.43980    2.00000
   48     -8.30486    2.00000
   49     -8.22016    2.00000
   50     -8.13221    2.00000
   51     -7.48594    2.00000
   52     -7.15439    2.00000
   53     -7.09628    2.00000
   54     -6.81875    2.00000
   55     -6.68401    2.00000
   56     -6.50811    2.00000
   57     -6.39591    2.00000
   58     -6.27624    2.00000
   59     -6.25807    2.00000
   60     -6.15251    2.00000
   61     -6.04874    2.00000
   62     -5.85738    2.00000
   63     -5.68273    2.00000
   64     -5.63082    2.00000
   65     -5.56265    2.00000
   66     -5.46614    2.00000
   67     -5.39889    2.00000
   68     -5.25495    2.00000
   69     -5.15007    2.00000
   70     -5.14103    2.00000
   71     -4.85273    2.00000
   72     -4.69606    2.00000
   73     -4.60331    2.00000
   74     -4.47376    2.00000
   75     -4.27008    2.00000
   76     -4.03378    2.00000
   77     -3.96704    2.00000
   78     -3.85882    2.00000
   79     -3.68044    2.00000
   80     -3.65077    2.00000
   81     -3.60995    2.00000
   82     -3.57300    2.00000
   83     -3.52843    2.00000
   84     -3.45849    2.00000
   85     -3.44078    2.00000
   86     -3.41158    2.00000
   87     -3.39744    2.00000
   88     -3.32253    2.00000
   89     -3.29516    2.00000
   90     -3.19993    2.00000
   91     -3.17471    2.00000
   92     -3.15353    2.00000
   93     -3.12765    2.00000
   94     -3.01148    2.00000
   95     -2.95128    2.00000
   96     -2.76397    2.00000
   97     -2.68447    2.00000
   98     -2.59144    2.00000
   99      1.65563    0.00000
  100      3.62246    0.00000
  101      3.71611    0.00000
  102      3.91530    0.00000
  103      4.13026    0.00000
  104      4.55965    0.00000
  105      4.91744    0.00000
  106      5.23884    0.00000
  107      5.65517    0.00000
  108      5.85494    0.00000
  109      5.89373    0.00000
  110      5.98734    0.00000
  111      6.11400    0.00000
  112      6.31310    0.00000
  113      6.36320    0.00000
  114      6.77886    0.00000
  115      6.79766    0.00000
  116      7.00741    0.00000
  117      7.37864    0.00000
  118      7.58155    0.00000
  119      7.63384    0.00000
  120      7.85182    0.00000
  121      7.99133    0.00000
  122      8.14905    0.00000

Fermi level: -0.44330

Gap: 4.247 eV
Transition (v -> c):
  (s=0, k=0, n=98, [0.00, 0.00, 0.00]) -> (s=0, k=0, n=99, [0.00, 0.00, 0.00])

Forces in eV/Ang:
  0 O     2.02569    0.79510    0.73378
  1 O    -0.61812   -0.13186    0.38425
  2 O     0.99393   -1.21602   -1.86601
  3 O     1.46377    0.48797    0.53490
  4 O    -0.22390    0.28135   -0.34268
  5 O    -0.40407   -0.30297    2.06666
  6 O     0.21993   -0.20550    1.15283
  7 O    -0.30995    0.34299   -0.04130
  8 O    -1.22588    0.46711    1.07942
  9 O    -0.05577    0.00394    0.29248
 10 O     0.59726   -0.12544    0.24208
 11 O    -0.10486    0.25882   -0.08390
 12 O     0.24599   -0.68689   -0.02373
 13 O     0.10975   -0.43491    0.02957
 14 O     1.43692   -0.44878    0.46251
 15 O    -0.81661   -1.18645    1.46997
 16 O     1.58214   -0.64176    1.80726
 17 O    -0.98906   -0.92953    0.15595
 18 O    -0.03604   -1.34187    1.04428
 19 O    -1.37660    0.02706   -0.76007
 20 O     0.67216   -0.32618    0.81173
 21 O    -0.56166   -0.73069   -0.88749
 22 O    -1.08154   -0.51179    0.24428
 23 O    -0.56211    0.89080    0.79428
 24 H    -0.96045   -0.42628   -0.18305
 25 H    -0.74826   -0.07243   -0.14269
 26 H    -0.05385   -0.25851   -1.08032
 27 H     0.35389    0.27968    0.36866
 28 H    -0.84671    1.14774    1.02165
 29 H    -0.56278    0.03829    0.35544
 30 H    -0.63606    0.37139    0.22938
 31 H    -0.56558   -0.30015   -0.29011
 32 H    -0.00604   -0.02665   -0.29702
 33 H    -0.14675   -0.30400    0.09042
 34 H    -0.63743   -0.03710   -0.70500
 35 H     0.68466   -0.12391   -1.61624
 36 H    -0.33166   -0.31277   -1.22770
 37 H     0.41349    0.25438   -0.50127
 38 H    -0.11932    0.32053   -0.34731
 39 H     0.14347   -0.23530    0.42162
 40 H     0.47535   -0.65882   -0.41891
 41 H     0.33863   -0.13952   -0.23218
 42 H     0.07060    0.67637   -0.17397
 43 H     0.13592   -0.34032   -0.61538
 44 H    -0.18102   -0.04805    0.07512
 45 H    -0.87643    0.71556    0.44230
 46 H    -0.27456   -0.33712    0.01969
 47 H    -0.00600    0.20750    0.31706
 48 H     0.04790    0.63571    0.05228
 49 H     0.17254   -0.00141   -0.10967
 50 H    -1.07859   -0.26947   -0.82621
 51 H     1.00747    0.36364    0.57212
 52 H    -1.41993    0.12932   -0.20632
 53 H    -0.31088    0.22603   -0.44932
 54 H     0.95733    1.33505   -1.11681
 55 H    -0.24440   -0.22297   -0.40073
 56 H    -0.86337   -0.10599   -0.04208
 57 H    -0.47277    0.28477   -1.18979
 58 H     0.27773   -0.35863   -0.67952
 59 H     0.74436    1.30607    0.42732
 60 H     0.23015    0.09083    0.18505
 61 H    -1.08269   -0.94692    0.46400
 62 H     1.44690    0.42305    0.46065
 63 H    -0.04657   -0.22541   -0.08218
 64 H    -0.20291    0.07438   -0.06527
 65 H     0.03322    0.29079   -0.47964
 66 H     0.65858    0.29613    0.98252
 67 H     0.27061   -0.10068   -0.09997
 68 H     1.08775    0.39808    0.50929
 69 H     0.07673   -0.16664   -0.43071
 70 H     1.08455   -0.32437   -0.05965
 71 H     0.11304   -0.61314   -0.33436
 72 Na    0.79903    2.65379   -1.91659

System changes: positions 

Initializing position-dependent things.

Density initialized from wave functions
       .---------------------.  
      /|            H        |  
     / |      H              |  
    /  H        O         HH |  
   /   |      H           O  |  
  /  O |H  H       O     H   |  
 *    H|  O    OHH  OHH      |  
 |     | H   H               |  
 | H  OO    H  O  HOH O      |  
 |   OH|H   OHNa       H H   |  
 |     |  H          H O H   |  
 |  H O.------H-O----HOHO----.  
 |   H/H   H O H  HO H      /   
 |   / O      HH           /    
 |  /      H O      H     /     
 | /      O              /      
 |/     H         H     /       
 *---------------------*        

Positions:
   0 O      3.259716    5.992364    0.697835    ( 0.0000,  0.0000,  0.0000)
   1 O      3.279604    9.784461    1.540105    ( 0.0000,  0.0000,  0.0000)
   2 O      0.871818    5.762571    0.080320    ( 0.0000,  0.0000,  0.0000)
   3 O      3.915747    3.247443    0.818536    ( 0.0000,  0.0000,  0.0000)
   4 O      6.498620    3.281835    1.889090    ( 0.0000,  0.0000,  0.0000)
   5 O      3.839021    6.456800    3.658431    ( 0.0000,  0.0000,  0.0000)
   6 O      1.947101    9.523244    4.247323    ( 0.0000,  0.0000,  0.0000)
   7 O      6.489337    7.773990    0.337333    ( 0.0000,  0.0000,  0.0000)
   8 O      6.964680    1.573097    8.598501    ( 0.0000,  0.0000,  0.0000)
   9 O      1.728649    6.911220    5.460177    ( 0.0000,  0.0000,  0.0000)
  10 O      2.339166    9.316973   -1.439413    ( 0.0000,  0.0000,  0.0000)
  11 O      0.950792    3.683050    4.975697    ( 0.0000,  0.0000,  0.0000)
  12 O      4.855717    2.563411   -1.525236    ( 0.0000,  0.0000,  0.0000)
  13 O      0.179412    5.666433    3.718539    ( 0.0000,  0.0000,  0.0000)
  14 O      0.772317    3.511745   -1.256564    ( 0.0000,  0.0000,  0.0000)
  15 O      5.217781    8.395031    2.507792    ( 0.0000,  0.0000,  0.0000)
  16 O     -0.391488    0.438769   -1.977118    ( 0.0000,  0.0000,  0.0000)
  17 O      6.601606    4.511164    6.231099    ( 0.0000,  0.0000,  0.0000)
  18 O      3.590963    2.527956    5.151953    ( 0.0000,  0.0000,  0.0000)
  19 O     -0.406767   10.474543    4.712102    ( 0.0000,  0.0000,  0.0000)
  20 O     -0.529142    6.667191   -2.167507    ( 0.0000,  0.0000,  0.0000)
  21 O      3.922545    7.382430   -1.433391    ( 0.0000,  0.0000,  0.0000)
  22 O      7.678278    5.730235    1.520044    ( 0.0000,  0.0000,  0.0000)
  23 O     -3.086111   10.505421    3.801589    ( 0.0000,  0.0000,  0.0000)
  24 H      2.267435    5.904086    0.621192    ( 0.0000,  0.0000,  0.0000)
  25 H      3.722935    5.110965    0.664708    ( 0.0000,  0.0000,  0.0000)
  26 H      3.437653   10.776867    1.569822    ( 0.0000,  0.0000,  0.0000)
  27 H      2.750683    9.601629    0.679286    ( 0.0000,  0.0000,  0.0000)
  28 H      1.183740    4.860255   -0.489616    ( 0.0000,  0.0000,  0.0000)
  29 H      0.150318    5.466469    0.711415    ( 0.0000,  0.0000,  0.0000)
  30 H      4.301083    2.934596   -0.108076    ( 0.0000,  0.0000,  0.0000)
  31 H      4.842550    3.380971    1.268713    ( 0.0000,  0.0000,  0.0000)
  32 H      6.874302    2.668616    1.170486    ( 0.0000,  0.0000,  0.0000)
  33 H      6.375796    2.678906    2.695339    ( 0.0000,  0.0000,  0.0000)
  34 H      3.336552    6.410032    2.802478    ( 0.0000,  0.0000,  0.0000)
  35 H      3.148267    6.623837    4.470034    ( 0.0000,  0.0000,  0.0000)
  36 H      2.256825    9.717367    3.362943    ( 0.0000,  0.0000,  0.0000)
  37 H      0.948292    9.789779    4.358041    ( 0.0000,  0.0000,  0.0000)
  38 H      5.921074    7.875409    1.207642    ( 0.0000,  0.0000,  0.0000)
  39 H      5.824981    7.660257   -0.412719    ( 0.0000,  0.0000,  0.0000)
  40 H      7.721770    1.344763    7.959871    ( 0.0000,  0.0000,  0.0000)
  41 H      6.731869    0.688915    9.018717    ( 0.0000,  0.0000,  0.0000)
  42 H      1.788687    7.854085    5.149667    ( 0.0000,  0.0000,  0.0000)
  43 H      0.900707    6.920329    6.157888    ( 0.0000,  0.0000,  0.0000)
  44 H      2.788966   10.204078   -1.584186    ( 0.0000,  0.0000,  0.0000)
  45 H      3.138618    8.563124   -1.504791    ( 0.0000,  0.0000,  0.0000)
  46 H      1.931860    3.592864    4.960903    ( 0.0000,  0.0000,  0.0000)
  47 H      0.616952    4.486448    4.301958    ( 0.0000,  0.0000,  0.0000)
  48 H      5.476793    3.220790   -1.923592    ( 0.0000,  0.0000,  0.0000)
  49 H      5.615255    1.948691   -1.102703    ( 0.0000,  0.0000,  0.0000)
  50 H      0.736513    6.355532    4.267363    ( 0.0000,  0.0000,  0.0000)
  51 H     -0.574209    5.794841    2.978076    ( 0.0000,  0.0000,  0.0000)
  52 H     -0.110674    3.919578   -1.171529    ( 0.0000,  0.0000,  0.0000)
  53 H      0.967947    3.550368   -2.228571    ( 0.0000,  0.0000,  0.0000)
  54 H      4.708023    7.670003    3.127753    ( 0.0000,  0.0000,  0.0000)
  55 H      4.454751    8.935525    2.097919    ( 0.0000,  0.0000,  0.0000)
  56 H      0.606849    0.428654   -1.649493    ( 0.0000,  0.0000,  0.0000)
  57 H     -0.281699    0.981118   -2.773587    ( 0.0000,  0.0000,  0.0000)
  58 H      6.649128    4.288754    5.281853    ( 0.0000,  0.0000,  0.0000)
  59 H      7.265079    5.228695    6.272802    ( 0.0000,  0.0000,  0.0000)
  60 H      3.937686    2.266364    6.079522    ( 0.0000,  0.0000,  0.0000)
  61 H      3.078583    1.753449    4.752695    ( 0.0000,  0.0000,  0.0000)
  62 H     -1.393019   10.375461    4.402446    ( 0.0000,  0.0000,  0.0000)
  63 H     -0.032208   11.433789    4.717279    ( 0.0000,  0.0000,  0.0000)
  64 H     -0.070791    6.314926   -1.300946    ( 0.0000,  0.0000,  0.0000)
  65 H     -0.776608    7.596389   -1.863183    ( 0.0000,  0.0000,  0.0000)
  66 H      3.399688    6.976467   -2.222316    ( 0.0000,  0.0000,  0.0000)
  67 H      3.567706    6.880175   -0.601431    ( 0.0000,  0.0000,  0.0000)
  68 H      6.936580    5.038191    1.384352    ( 0.0000,  0.0000,  0.0000)
  69 H      7.297738    6.604230    1.153135    ( 0.0000,  0.0000,  0.0000)
  70 H     -3.953120   10.749758    4.282074    ( 0.0000,  0.0000,  0.0000)
  71 H     -3.336177    9.617104    3.337370    ( 0.0000,  0.0000,  0.0000)
  72 Na     4.000443    4.001260    3.999640    ( 0.0000,  0.0000,  0.0000)

Unit cell:
           periodic     x           y           z      points  spacing
  1. axis:    yes    8.956370    0.000000    0.000000    44     0.2036
  2. axis:    yes    0.000000    8.956370    0.000000    44     0.2036
  3. axis:    yes    0.000000    0.000000    8.956370    44     0.2036

  Lengths:   8.956370   8.956370   8.956370
  Angles:   90.000000  90.000000  90.000000

Effective grid spacing dv^(1/3) = 0.2036

     iter     time        total  log10-change:
                         energy  eigst   dens
iter:   1 10:26:08  -334.166064       c
iter:   2 10:26:08  -334.160018       c -2.51
iter:   3 10:26:08  -334.141355c      c -2.55
iter:   4 10:26:09  -334.138821c      c -2.80
iter:   5 10:26:09  -334.138787c      c -3.37
iter:   6 10:26:09  -334.138732c      c -3.43
iter:   7 10:26:10  -334.138725c      c -3.81
iter:   8 10:26:10  -334.138725c      c -4.45c

Converged after 8 iterations.

Dipole moment: (15.014740, -9.589415, -2.947409) |e|*Ang

Energy contributions relative to reference atoms: (reference = -53998.593513)

Kinetic:       +281.212923
Potential:     -323.880853
External:        +0.000000
XC:            -300.916274
Entropy (-ST):   -0.000000
Local:           +9.445480
--------------------------
Free energy:   -334.138725
Extrapolated:  -334.138725

 Band  Eigenvalues  Occupancy
    0    -25.31939    2.00000
    1    -25.24200    2.00000
    2    -25.21925    2.00000
    3    -22.30484    2.00000
    4    -22.02485    2.00000
    5    -21.80121    2.00000
    6    -21.67015    2.00000
    7    -21.66223    2.00000
    8    -21.55768    2.00000
    9    -21.47507    2.00000
   10    -21.38079    2.00000
   11    -21.32245    2.00000
   12    -21.25941    2.00000
   13    -21.23835    2.00000
   14    -21.15723    2.00000
   15    -21.02333    2.00000
   16    -20.99509    2.00000
   17    -20.95052    2.00000
   18    -20.75197    2.00000
   19    -20.70689    2.00000
   20    -20.58397    2.00000
   21    -20.49624    2.00000
   22    -20.36331    2.00000
   23    -20.15672    2.00000
   24    -20.07237    2.00000
   25    -19.81950    2.00000
   26    -19.70739    2.00000
   27    -10.48877    2.00000
   28    -10.10867    2.00000
   29     -9.80401    2.00000
   30     -9.66864    2.00000
   31     -9.50175    2.00000
   32     -9.41302    2.00000
   33     -9.40175    2.00000
   34     -9.33221    2.00000
   35     -9.30557    2.00000
   36     -9.25541    2.00000
   37     -9.15838    2.00000
   38     -9.11418    2.00000
   39     -9.04362    2.00000
   40     -9.00846    2.00000
   41     -8.96144    2.00000
   42     -8.94568    2.00000
   43     -8.71023    2.00000
   44     -8.65535    2.00000
   45     -8.63315    2.00000
   46     -8.52522    2.00000
   47     -8.39629    2.00000
   48     -8.32492    2.00000
   49     -8.22115    2.00000
   50     -8.15134    2.00000
   51     -7.46958    2.00000
   52     -7.11259    2.00000
   53     -7.08895    2.00000
   54     -6.79628    2.00000
   55     -6.66391    2.00000
   56     -6.49911    2.00000
   57     -6.36363    2.00000
   58     -6.27623    2.00000
   59     -6.24401    2.00000
   60     -6.14673    2.00000
   61     -6.03058    2.00000
   62     -5.81597    2.00000
   63     -5.66520    2.00000
   64     -5.63543    2.00000
   65     -5.55227    2.00000
   66     -5.45472    2.00000
   67     -5.40503    2.00000
   68     -5.27923    2.00000
   69     -5.15510    2.00000
   70     -5.13913    2.00000
   71     -4.84748    2.00000
   72     -4.63331    2.00000
   73     -4.59648    2.00000
   74     -4.47129    2.00000
   75     -4.26703    2.00000
   76     -4.02349    2.00000
   77     -3.94391    2.00000
   78     -3.81077    2.00000
   79     -3.68172    2.00000
   80     -3.66737    2.00000
   81     -3.61426    2.00000
   82     -3.56251    2.00000
   83     -3.53579    2.00000
   84     -3.48615    2.00000
   85     -3.44068    2.00000
   86     -3.41465    2.00000
   87     -3.38995    2.00000
   88     -3.34241    2.00000
   89     -3.32041    2.00000
   90     -3.22040    2.00000
   91     -3.16395    2.00000
   92     -3.12241    2.00000
   93     -3.08642    2.00000
   94     -3.03871    2.00000
   95     -2.94534    2.00000
   96     -2.81516    2.00000
   97     -2.65029    2.00000
   98     -2.60622    2.00000
   99      1.67778    0.00000
  100      3.65155    0.00000
  101      3.71489    0.00000
  102      3.90254    0.00000
  103      4.14110    0.00000
  104      4.53564    0.00000
  105      4.93779    0.00000
  106      5.22254    0.00000
  107      5.64708    0.00000
  108      5.82243    0.00000
  109      5.85786    0.00000
  110      5.95117    0.00000
  111      6.08186    0.00000
  112      6.33094    0.00000
  113      6.37062    0.00000
  114      6.72903    0.00000
  115      6.78455    0.00000
  116      6.99763    0.00000
  117      7.34355    0.00000
  118      7.53330    0.00000
  119      7.62694    0.00000
  120      7.82674    0.00000
  121      7.94717    0.00000
  122      8.12298    0.00000

Fermi level: -0.43382

Gap: 4.284 eV
Transition (v -> c):
  (s=0, k=0, n=98, [0.00, 0.00, 0.00]) -> (s=0, k=0, n=99, [0.00, 0.00, 0.00])

Forces in eV/Ang:
  0 O     1.95851    1.22122    0.79284
  1 O    -0.95775   -0.73409   -0.05947
  2 O     0.92374   -1.43256   -1.89675
  3 O     1.40658    0.47793    0.33603
  4 O    -0.09600    0.08769   -0.47732
  5 O    -0.71445   -0.21572    2.03527
  6 O    -0.05413   -0.40025    2.07637
  7 O    -0.62153    0.37732    0.01753
  8 O    -1.12552    0.58873    0.97473
  9 O    -0.18982   -0.05298    0.47784
 10 O     0.90210    0.56441    0.17145
 11 O    -0.18171    0.22847   -0.05367
 12 O     0.22689   -1.21759    0.25179
 13 O    -0.18580   -0.43639   -0.25237
 14 O     0.73408   -0.13651    0.94902
 15 O    -0.57100   -1.09280    1.39852
 16 O     1.63776   -1.08300    2.63524
 17 O    -0.81393   -0.80469   -0.05163
 18 O    -0.13353   -1.58731    1.10481
 19 O    -0.98807   -0.06454   -0.63243
 20 O     0.84974   -0.37850    1.11863
 21 O    -0.42946   -0.54278   -1.20059
 22 O    -0.96417   -0.47318    0.27560
 23 O    -0.56753    0.59534    0.62596
 24 H    -1.00922   -0.47069   -0.18968
 25 H    -0.62448   -0.46502   -0.16569
 26 H     0.09909    0.27985   -0.96401
 27 H     0.55737    0.26204    0.69251
 28 H    -1.03992    1.31618    1.18677
 29 H    -0.37434    0.05267    0.15727
 30 H    -0.70989    0.41271    0.32573
 31 H    -0.49219   -0.31306   -0.18773
 32 H    -0.18127    0.15013    0.06206
 33 H    -0.09182   -0.26466   -0.14058
 34 H    -0.48324   -0.01129   -0.36362
 35 H     0.83091   -0.22169   -1.89679
 36 H     0.02675   -0.08858   -2.16800
 37 H     0.32644    0.23730   -0.47246
 38 H     0.03393    0.28653   -0.47980
 39 H     0.31179   -0.22601    0.50661
 40 H     0.39210   -0.65979   -0.40337
 41 H     0.31132   -0.25601   -0.21271
 42 H     0.01839    0.64623   -0.13332
 43 H     0.28388   -0.27799   -0.82485
 44 H    -0.48111   -0.74556    0.18535
 45 H    -0.89782    0.71512    0.39113
 46 H    -0.16202   -0.35292   -0.01218
 47 H    -0.02780    0.24207    0.30141
 48 H     0.29812    0.98758   -0.16722
 49 H    -0.04410    0.14582   -0.14065
 50 H    -1.10492   -0.28659   -0.81433
 51 H     1.35142    0.39423    0.81718
 52 H    -0.72108   -0.17197   -0.30315
 53 H    -0.28371    0.24512   -0.80953
 54 H     0.83671    1.07225   -1.00119
 55 H    -0.41910   -0.07680   -0.45145
 56 H    -0.98281   -0.14517   -0.14796
 57 H    -0.37933    0.80550   -1.90944
 58 H     0.23421   -0.35292   -0.49643
 59 H     0.62233    1.18509    0.45622
 60 H     0.19762    0.15443   -0.01452
 61 H    -0.93321   -0.69973    0.54923
 62 H     1.19762    0.50026    0.35650
 63 H    -0.14310   -0.20220   -0.08332
 64 H    -0.32397    0.19812   -0.33168
 65 H     0.06316    0.21209   -0.51224
 66 H     0.67260    0.33132    1.09694
 67 H     0.10971   -0.31053    0.10941
 68 H     1.00202    0.42959    0.51664
 69 H     0.04307   -0.30556   -0.42008
 70 H     0.94816   -0.19089    0.05484
 71 H     0.25534   -0.38929   -0.28436
 72 Na    0.77512    2.58778   -1.87659

Timing:                                       incl.     excl.
--------------------------------------------------------------------
Basic WFS set positions:                      0.010     0.010   0.1% |
 Redistribute:                                0.001     0.001   0.0% |
Basis functions set positions:                0.095     0.095   0.5% |
Forces:                                       2.448     0.764   4.4% |-|
 LCAO forces:                                 1.683     0.011   0.1% |
  Atomic Hamiltonian force:                   0.033     0.033   0.2% |
  Initial:                                    0.039     0.000   0.0% |
   Get density matrix:                        0.039     0.039   0.2% |
  Paw correction:                             0.038     0.038   0.2% |
  Potential:                                  0.644     0.644   3.7% ||
  TCI derivative:                             0.919     0.919   5.2% |-|
  Wait for sum:                               0.000     0.000   0.0% |
LCAO WFS Initialize:                          0.671     0.006   0.0% |
 Density initialized from wave functions:     0.176     0.090   0.5% |
  Calculate density matrix:                   0.010     0.010   0.1% |
  Construct density:                          0.076     0.076   0.4% |
  Symmetrize density:                         0.000     0.000   0.0% |
 Hamiltonian:                                 0.488     0.000   0.0% |
  Atomic:                                     0.251     0.004   0.0% |
   XC Correction:                             0.247     0.247   1.4% ||
  Calculate atomic Hamiltonians:              0.005     0.005   0.0% |
  Communicate:                                0.066     0.066   0.4% |
  Hartree integrate/restrict:                 0.005     0.005   0.0% |
  Initialize Hamiltonian:                     0.000     0.000   0.0% |
  Poisson:                                    0.128     0.001   0.0% |
   Communicate from 1D:                       0.024     0.024   0.1% |
   Communicate from 2D:                       0.035     0.035   0.2% |
   Communicate to 1D:                         0.022     0.022   0.1% |
   Communicate to 2D:                         0.040     0.040   0.2% |
   FFT 1D:                                    0.002     0.002   0.0% |
   FFT 2D:                                    0.004     0.004   0.0% |
  XC 3D grid:                                 0.032     0.032   0.2% |
  vbar:                                       0.000     0.000   0.0% |
P tci:                                        0.079     0.079   0.5% |
Redistribute:                                 0.001     0.001   0.0% |
SCF-cycle:                                   12.109     0.035   0.2% |
 Density:                                     2.033     0.001   0.0% |
  Atomic density matrices:                    0.986     0.986   5.6% |-|
  Mix:                                        0.068     0.068   0.4% |
  Multipole moments:                          0.009     0.009   0.1% |
  Normalize:                                  0.002     0.002   0.0% |
  Pseudo density:                             0.967     0.003   0.0% |
   Calculate density matrix:                  0.114     0.114   0.7% |
   Construct density:                         0.848     0.848   4.8% |-|
   Symmetrize density:                        0.001     0.001   0.0% |
 Hamiltonian:                                 3.876     0.003   0.0% |
  Atomic:                                     2.077     0.036   0.2% |
   XC Correction:                             2.041     2.041  11.7% |----|
  Calculate atomic Hamiltonians:              0.052     0.052   0.3% |
  Communicate:                                0.556     0.556   3.2% ||
  Hartree integrate/restrict:                 0.025     0.025   0.1% |
  Poisson:                                    0.899     0.012   0.1% |
   Communicate from 1D:                       0.167     0.167   1.0% |
   Communicate from 2D:                       0.283     0.283   1.6% ||
   Communicate to 1D:                         0.163     0.163   0.9% |
   Communicate to 2D:                         0.227     0.227   1.3% ||
   FFT 1D:                                    0.014     0.014   0.1% |
   FFT 2D:                                    0.033     0.033   0.2% |
  XC 3D grid:                                 0.260     0.260   1.5% ||
  vbar:                                       0.004     0.004   0.0% |
 LCAO eigensolver:                            6.164     0.023   0.1% |
  Calculate projections:                      0.009     0.009   0.1% |
  DenseAtomicCorrection:                      0.029     0.029   0.2% |
  Distribute overlap matrix:                  1.510     1.510   8.6% |--|
  Orbital Layouts:                            3.281     3.281  18.7% |------|
  Potential matrix:                           1.313     1.313   7.5% |--|
ST tci:                                       0.106     0.106   0.6% |
Set symmetry:                                 0.001     0.001   0.0% |
TCI: Evaluate splines:                        0.679     0.679   3.9% |-|
mktci:                                        0.671     0.671   3.8% |-|
Other:                                        0.648     0.648   3.7% ||
--------------------------------------------------------------------
Total:                                                 17.517 100.0%

Memory usage: 306.00 MiB
Date: Tue Feb  7 10:26:11 2023
