6
Lattice="16.0 0.0 0.0 0.0 16.0 0.0 0.0 0.0 16.0" Properties=species:S:1:pos:R:3:forces:R:3:magmoms:R:1 energy=-5.189673006752222 dipole="-0.06192244110853456 -0.08883339562769015 -0.058206310007879465" magmom=0.0 free_energy=-5.18970371427882 pbc="F F F"
Na       8.26386571       9.55186779       8.83427086      -0.00080663      -0.00001951      -0.00011059       0.00000000
Na       6.32129775       7.76482621      10.76641583      -0.00030680      -0.00058569       0.00027401       0.00000000
Na       5.04381308       9.94909124       8.38427095       0.00058734      -0.00014464       0.00076810       0.00000000
Na       7.30747219      10.10460454       5.75363674       0.00030858      -0.00021681      -0.00070087       0.00000000
Na       9.98584791       8.02081695       6.51190393      -0.00003182      -0.00013605      -0.00018292       0.00000000
Na       9.37856647       6.57534378       9.61559246       0.00002257       0.00076067       0.00010933       0.00000000
