6
Lattice="16.0 0.0 0.0 0.0 16.0 0.0 0.0 0.0 16.0" Properties=species:S:1:pos:R:3:forces:R:3:magmoms:R:1 energy=-4.475882033063364 dipole="0.001723642670280559 -0.001388459417038583 0.0006285947709540217" magmom=0.0 free_energy=-4.475883165892369 pbc="F F F"
Na      11.50882463       5.00253589       9.57771209      -0.00045293       0.00065020      -0.00031981       0.00000000
Na       9.20940479       7.22139628      10.71366207      -0.00032450       0.00022647       0.00022244       0.00000000
Na       6.81752166       9.47110472      11.55834123      -0.00064263      -0.00007559      -0.00005558       0.00000000
Na       7.47851119       7.94057507       4.99588443      -0.00002392       0.00008475      -0.00022011       0.00000000
Na       9.55675392       6.39373540       7.18201229      -0.00059519       0.00011614      -0.00029415       0.00000000
Na       7.03053671       8.79388995       8.24519368      -0.00005755       0.00062848       0.00013162       0.00000000
