6
Lattice="16.0 0.0 0.0 0.0 16.0 0.0 0.0 0.0 16.0" Properties=species:S:1:pos:R:3:forces:R:3:magmoms:R:1 energy=-5.330208275903002 dipole="-0.07404074961624336 -0.07517282409211502 -0.06701158505191934" magmom=0.0 free_energy=-5.330236430187401 pbc="F F F"
Na       8.37074338       9.34597332       8.90992466       0.00011332      -0.00022737      -0.00002788       0.00000000
Na       6.12392916       7.72083927      10.64408652       0.00016468       0.00012751      -0.00010262       0.00000000
Na       5.28322971      10.35299628       8.52605230      -0.00014603       0.00000315      -0.00003973       0.00000000
Na       7.59047476      10.41210033       5.91834043       0.00012268       0.00006915       0.00005095       0.00000000
Na       9.85547193       7.81724465       6.42868442       0.00007511       0.00046536       0.00007723       0.00000000
Na       8.95666623       6.15931380       9.35503693      -0.00033682      -0.00041330      -0.00002821       0.00000000
